V -t * -v 1.0a5 -a 0
W -t * -x 400 -y 400
A -t * -n 1 -p 0 -o 0x7fffffff -c 30 -a 1
A -t * -h 1 -m 1073741823 -s 0
n -t 0.000000 -s 0 -x 268.855000 -y 168.458670 -U -3.227987 -V 2.705843 -T 68.272116
n -t 0.000000 -s 1 -x 179.148171 -y 83.600147 -U -2.750644 -V 0.435610 -T 58.936251
n -t 0.000000 -s 2 -x 197.426147 -y 94.556801 -U -1.802849 -V 1.322531 -T 50.422664
n -t 0.000000 -s 3 -x 271.656018 -y 270.394206 -U -1.465575 -V -4.202915 -T 18.273874
n -t 0.000000 -s 4 -x 83.383165 -y 4.954393 -U 4.694176 -V 4.944121 -T 64.475181
n -t 0.000000 -s 5 -x 67.000298 -y 81.840647 -U 1.965480 -V 4.715335 -T 49.602706
n -t 0.000000 -s 6 -x 344.438765 -y 349.645505 -U -2.123766 -V 2.812872 -T 10.556919
n -t 0.000000 -s 7 -x 297.116055 -y 29.239345 -U 2.498894 -V 8.766656 -T 29.217930
n -t 0.000000 -s 8 -x 53.524804 -y 66.658452 -U 5.774976 -V 1.248107 -T 50.686241
n -t 0.000000 -s 9 -x 22.634552 -y 334.612143 -U 0.017896 -V 0.000687 -T 12842.642405
n -t 0.000000 -s 10 -x 384.477930 -y 155.705670 -U -3.776456 -V 3.633617 -T 34.927586
n -t 0.000000 -s 11 -x 294.667630 -y 189.466350 -U -0.297388 -V 0.310663 -T 629.769254
n -t 0.000000 -s 12 -x 374.191115 -y 35.895711 -U -6.299490 -V 0.919132 -T 30.921619
n -t 0.000000 -s 13 -x 184.749578 -y 52.698476 -U -0.272012 -V 3.222756 -T 71.943483
n -t 0.000000 -s 14 -x 390.605215 -y 294.925821 -U -1.342972 -V -0.996650 -T 226.264428
n -t 0.000000 -s 15 -x 316.307436 -y 358.663770 -U -0.045095 -V -0.028493 -T 3545.017337
n -t 0.000000 -s 16 -x 290.657408 -y 47.019620 -U -1.046189 -V 0.685418 -T 248.639299
n -t 0.000000 -s 17 -x 329.591822 -y 92.455705 -U -0.799714 -V 1.213715 -T 165.226785
n -t 0.000000 -s 18 -x 246.383856 -y 90.602647 -U 0.472977 -V 4.611290 -T 8.183322
n -t 0.000000 -s 19 -x 102.086388 -y 9.208556 -U 3.761739 -V 7.486063 -T 37.870832
n -t 0.000000 -s 20 -x 366.723165 -y 41.554701 -U -7.515652 -V 5.553854 -T 23.582796
n -t 0.000000 -s 21 -x 126.175960 -y 143.967443 -U 0.863964 -V 0.690554 -T 170.114459
n -t 0.000000 -s 22 -x 278.421522 -y 355.229243 -U -0.457434 -V -6.039040 -T 27.512767
n -t 0.000000 -s 23 -x 29.206775 -y 178.383006 -U 4.521679 -V -1.625211 -T 16.427604
n -t 0.000000 -s 24 -x 213.998225 -y 6.393218 -U 0.276480 -V 2.520054 -T 95.164713
n -t 0.000000 -s 25 -x 72.465246 -y 307.942580 -U 2.579526 -V -2.710053 -T 93.024884
n -t 0.000000 -s 26 -x 257.055464 -y 192.976125 -U -5.702511 -V 1.910213 -T 25.632616
n -t 0.000000 -s 27 -x 7.359313 -y 106.533558 -U 6.306985 -V -2.194458 -T 37.351851
n -t 0.000000 -s 28 -x 14.464570 -y 60.657234 -U 7.051838 -V 4.250907 -T 28.026675
n -t 0.000000 -s 29 -x 208.844375 -y 385.483326 -U -0.021222 -V -8.766108 -T 24.776099
n -t 0.000000 -s 30 -x 33.082053 -y 159.900370 -U 0.073001 -V 0.577881 -T 369.750612
n -t 0.000000 -s 31 -x 256.202675 -y 97.340379 -U -1.820500 -V 1.132114 -T 122.943992
n -t 0.000000 -s 32 -x 87.413782 -y 338.817281 -U -0.856633 -V -3.203153 -T 49.396659
n -t 0.000000 -s 33 -x 219.932006 -y 2.180916 -U -1.193503 -V 0.743143 -T 126.284920
n -t 0.000000 -s 34 -x 148.387461 -y 9.358750 -U -0.872623 -V 1.490982 -T 162.910571
n -t 0.000000 -s 35 -x 182.082382 -y 376.940226 -U -2.158922 -V -5.871768 -T 59.038452
n -t 0.000000 -s 36 -x 63.073158 -y 196.190594 -U 3.727090 -V 3.577720 -T 31.549982
n -t 0.000000 -s 37 -x 267.127477 -y 74.205673 -U -3.430749 -V 7.304418 -T 38.060023
n -t 0.000000 -s 38 -x 57.841743 -y 196.921675 -U 4.901824 -V 3.733232 -T 52.497297
n -t 0.000000 -s 39 -x 379.024754 -y 318.823702 -U -0.461421 -V -1.665269 -T 171.471136
n -t 0.000000 -s 40 -x 327.668470 -y 374.318149 -U -8.176667 -V 0.492153 -T 34.554339
n -t 0.000000 -s 41 -x 30.179418 -y 369.370833 -U 7.846496 -V -1.417581 -T 31.745112
n -t 0.000000 -s 42 -x 132.255272 -y 368.256626 -U 2.562737 -V -8.402418 -T 30.739020
n -t 0.000000 -s 43 -x 132.768965 -y 112.477192 -U 2.019362 -V -0.072270 -T 103.286501
n -t 0.000000 -s 44 -x 290.161252 -y 110.137276 -U -0.370801 -V 9.704474 -T 2.442717
n -t 0.000000 -s 45 -x 31.989866 -y 96.458720 -U 1.128978 -V 1.027910 -T 221.581310
n -t 0.000000 -s 46 -x 26.389273 -y 144.629955 -U 0.879412 -V 0.646299 -T 302.395307
n -t 0.000000 -s 47 -x 312.532268 -y 185.488490 -U -1.152959 -V 5.098102 -T 32.283975
n -t 0.000000 -s 48 -x 51.407005 -y 259.180958 -U 1.906188 -V -0.972160 -T 156.190787
n -t 0.000000 -s 49 -x 193.404765 -y 279.237065 -U -0.973124 -V -1.615966 -T 139.504766
n -t 0.000000 -s 50 -x 210.642511 -y 337.627771 -U -1.344422 -V -3.353267 -T 69.679489
n -t 0.000000 -s 51 -x 267.560417 -y 133.214557 -U -1.789323 -V 3.560382 -T 63.315408
n -t 0.000000 -s 52 -x 378.779417 -y 80.374668 -U -4.363844 -V 1.256036 -T 53.235784
n -t 0.000000 -s 53 -x 217.775734 -y 298.720739 -U 2.092648 -V 0.717920 -T 22.272127
n -t 0.000000 -s 54 -x 53.005233 -y 362.844621 -U 2.622000 -V -2.516447 -T 78.490773
n -t 0.000000 -s 55 -x 124.549323 -y 101.689817 -U -2.884195 -V -0.563066 -T 35.287804
n -t 0.000000 -s 56 -x 308.176340 -y 37.781184 -U -3.125908 -V 3.500207 -T 63.646207
n -t 0.000000 -s 57 -x 299.424428 -y 230.307070 -U -1.424315 -V 1.665429 -T 71.415400
n -t 0.000000 -s 58 -x 269.005660 -y 139.075851 -U -3.586315 -V 0.586212 -T 30.814712
n -t 0.000000 -s 59 -x 7.540079 -y 317.915051 -U 0.034255 -V -2.946418 -T 104.439156
n -t 0.000000 -s 60 -x 11.147971 -y 135.045005 -U 2.057515 -V 0.628038 -T 146.989272
n -t 0.000000 -s 61 -x 312.088942 -y 365.449426 -U -0.978637 -V -0.668393 -T 235.624844
n -t 0.000000 -s 62 -x 296.804292 -y 274.246224 -U -3.805607 -V 1.957441 -T 11.576273
n -t 0.000000 -s 63 -x 75.609385 -y 374.458395 -U 1.853097 -V -4.220824 -T 80.321701
n -t 0.000000 -s 64 -x 303.330999 -y 356.785100 -U -3.535099 -V -2.558498 -T 69.456313
n -t 0.000000 -s 65 -x 18.100623 -y 289.231795 -U 5.687128 -V -5.042088 -T 49.913617
n -t 0.000000 -s 66 -x 143.053419 -y 161.485794 -U 1.585150 -V -0.429005 -T 124.827788
n -t 0.000000 -s 67 -x 119.248426 -y 358.056046 -U 1.369961 -V -0.565680 -T 137.512286
n -t 0.000000 -s 68 -x 379.709345 -y 272.269889 -U -1.734837 -V -8.796791 -T 7.981192
n -t 0.000000 -s 69 -x 362.210786 -y 237.836439 -U -4.805271 -V -5.996700 -T 29.967825
n -t 0.000000 -s 70 -x 98.306069 -y 307.015569 -U 8.187016 -V -0.916516 -T 15.671997
n -t 0.000000 -s 71 -x 297.548333 -y 311.827234 -U -4.867164 -V -4.334390 -T 48.154834
n -t 0.000000 -s 72 -x 319.052358 -y 132.875254 -U -7.533408 -V -3.052774 -T 15.399093
n -t 0.000000 -s 73 -x 24.477953 -y 362.330077 -U 4.645734 -V -4.950086 -T 52.834100
n -t 0.000000 -s 74 -x 313.853842 -y 198.253041 -U -2.592337 -V -0.230606 -T 120.471055
n -t 0.000000 -s 75 -x 144.511462 -y 218.877887 -U -0.071938 -V -0.455209 -T 389.166690
n -t 0.000000 -s 76 -x 201.341638 -y 311.072367 -U -1.829701 -V 1.046797 -T 48.531198
n -t 0.000000 -s 77 -x 73.380977 -y 323.309563 -U 7.777301 -V -2.326013 -T 41.693099
n -t 0.000000 -s 78 -x 54.341162 -y 104.617947 -U 2.015822 -V -2.161507 -T 48.229669
n -t 0.000000 -s 79 -x 214.033157 -y 62.505181 -U 2.384811 -V 3.050476 -T 60.426368
n -t 0.000000 -s 80 -x 56.267862 -y 14.815435 -U 5.683357 -V -0.127093 -T 34.228469
n -t 0.000000 -s 81 -x 44.920984 -y 315.661704 -U 7.734747 -V -0.044954 -T 25.625255
n -t 0.000000 -s 82 -x 313.106126 -y 72.558607 -U -3.065595 -V 1.955968 -T 34.515698
n -t 0.000000 -s 83 -x 268.038891 -y 37.914834 -U 0.091027 -V 0.234885 -T 974.365910
n -t 0.000000 -s 84 -x 265.568596 -y 193.888499 -U 1.810983 -V -3.461784 -T 30.998210
n -t 0.000000 -s 85 -x 173.962369 -y 145.508086 -U -1.896023 -V 1.526593 -T 53.636264
n -t 0.000000 -s 86 -x 233.036606 -y 116.587664 -U -1.073938 -V 1.140680 -T 156.687362
n -t 0.000000 -s 87 -x 318.743602 -y 216.989919 -U -5.191243 -V -0.208993 -T 59.510774
n -t 0.000000 -s 88 -x 116.389550 -y 312.806765 -U 6.833087 -V -1.569408 -T 36.644525
n -t 0.000000 -s 89 -x 125.113454 -y 12.546512 -U 5.213025 -V 6.181784 -T 48.785512
n -t 0.000000 -s 90 -x 242.776402 -y 185.657570 -U -2.833073 -V 0.997818 -T 83.740046
n -t 0.000000 -s 91 -x 289.471958 -y 98.831628 -U -0.817699 -V -0.199484 -T 274.829718
n -t 0.000000 -s 92 -x 59.182800 -y 265.369627 -U 4.239186 -V -1.667038 -T 78.867923
n -t 0.000000 -s 93 -x 68.331415 -y 59.542119 -U 0.703189 -V 2.696980 -T 111.615939
n -t 0.000000 -s 94 -x 360.232511 -y 391.949531 -U -4.352533 -V -8.960979 -T 43.153120
n -t 0.000000 -s 95 -x 120.971470 -y 396.265169 -U -0.045767 -V -0.050403 -T 1464.128404
n -t 0.000000 -s 96 -x 315.202663 -y 397.783778 -U 0.002911 -V -0.014735 -T 23137.780143
n -t 0.000000 -s 97 -x 52.341049 -y 228.324838 -U -0.586614 -V 0.931733 -T 64.089329
n -t 0.000000 -s 98 -x 96.499104 -y 251.685875 -U 1.673344 -V -0.604273 -T 53.698924
n -t 0.000000 -s 99 -x 151.768385 -y 226.059051 -U 1.290408 -V -0.246457 -T 62.021015
n -t 2.442717 -s 44 -x 289.255490 -y 133.842564 -U -4.470858 -V -1.497939 -T 34.374119
+ -t 2.556838879 -s 1 -d -1 -p cbr -e 512 -c 2 -a 0 -i 0 -k AGT 
- -t 2.556838879 -s 1 -d -1 -p cbr -e 512 -c 2 -a 0 -i 0 -k AGT
h -t 2.556838879 -s 1 -d -1 -p cbr -e 512 -c 2 -a 0 -i 0 -k AGT
+ -t 2.556838879 -s 1 -d -1 -p AODV -e 48 -c 2 -a 0 -i 0 -k RTR 
- -t 2.556838879 -s 1 -d -1 -p AODV -e 48 -c 2 -a 0 -i 0 -k RTR
h -t 2.556838879 -s 1 -d -1 -p AODV -e 48 -c 2 -a 0 -i 0 -k RTR
r -t 2.558146961 -s 2 -d -1 -p AODV -e 48 -c 2 -a 0 -i 0 -k RTR
+ -t 2.558146961 -s 2 -d 1 -p AODV -e 44 -c 2 -a 0 -i 0 -k RTR 
- -t 2.558146961 -s 2 -d 1 -p AODV -e 44 -c 2 -a 0 -i 0 -k RTR
h -t 2.558146961 -s 2 -d 1 -p AODV -e 44 -c 2 -a 0 -i 0 -k RTR
r -t 2.558146967 -s 13 -d -1 -p AODV -e 48 -c 2 -a 0 -i 0 -k RTR
r -t 2.558147025 -s 43 -d -1 -p AODV -e 48 -c 2 -a 0 -i 0 -k RTR
r -t 2.558147046 -s 79 -d -1 -p AODV -e 48 -c 2 -a 0 -i 0 -k RTR
r -t 2.558147069 -s 55 -d -1 -p AODV -e 48 -c 2 -a 0 -i 0 -k RTR
r -t 2.558147095 -s 85 -d -1 -p AODV -e 48 -c 2 -a 0 -i 0 -k RTR
r -t 2.558147098 -s 89 -d -1 -p AODV -e 48 -c 2 -a 0 -i 0 -k RTR
r -t 2.558147105 -s 86 -d -1 -p AODV -e 48 -c 2 -a 0 -i 0 -k RTR
r -t 2.558147129 -s 21 -d -1 -p AODV -e 48 -c 2 -a 0 -i 0 -k RTR
r -t 2.558147132 -s 34 -d -1 -p AODV -e 48 -c 2 -a 0 -i 0 -k RTR
r -t 2.558147137 -s 18 -d -1 -p AODV -e 48 -c 2 -a 0 -i 0 -k RTR
r -t 2.558147144 -s 66 -d -1 -p AODV -e 48 -c 2 -a 0 -i 0 -k RTR
r -t 2.558147148 -s 31 -d -1 -p AODV -e 48 -c 2 -a 0 -i 0 -k RTR
r -t 2.558147154 -s 19 -d -1 -p AODV -e 48 -c 2 -a 0 -i 0 -k RTR
r -t 2.558147157 -s 24 -d -1 -p AODV -e 48 -c 2 -a 0 -i 0 -k RTR
r -t 2.558147167 -s 37 -d -1 -p AODV -e 48 -c 2 -a 0 -i 0 -k RTR
r -t 2.558147186 -s 33 -d -1 -p AODV -e 48 -c 2 -a 0 -i 0 -k RTR
r -t 2.558147214 -s 5 -d -1 -p AODV -e 48 -c 2 -a 0 -i 0 -k RTR
r -t 2.558147218 -s 4 -d -1 -p AODV -e 48 -c 2 -a 0 -i 0 -k RTR
r -t 2.558147224 -s 93 -d -1 -p AODV -e 48 -c 2 -a 0 -i 0 -k RTR
r -t 2.558147225 -s 58 -d -1 -p AODV -e 48 -c 2 -a 0 -i 0 -k RTR
r -t 2.558147228 -s 8 -d -1 -p AODV -e 48 -c 2 -a 0 -i 0 -k RTR
r -t 2.558147234 -s 83 -d -1 -p AODV -e 48 -c 2 -a 0 -i 0 -k RTR
r -t 2.558147237 -s 51 -d -1 -p AODV -e 48 -c 2 -a 0 -i 0 -k RTR
r -t 2.558147257 -s 78 -d -1 -p AODV -e 48 -c 2 -a 0 -i 0 -k RTR
r -t 2.558147266 -s 91 -d -1 -p AODV -e 48 -c 2 -a 0 -i 0 -k RTR
r -t 2.558147283 -s 16 -d -1 -p AODV -e 48 -c 2 -a 0 -i 0 -k RTR
r -t 2.558147283 -s 90 -d -1 -p AODV -e 48 -c 2 -a 0 -i 0 -k RTR
r -t 2.558147290 -s 80 -d -1 -p AODV -e 48 -c 2 -a 0 -i 0 -k RTR
r -t 2.558147300 -s 44 -d -1 -p AODV -e 48 -c 2 -a 0 -i 0 -k RTR
r -t 2.558147301 -s 0 -d -1 -p AODV -e 48 -c 2 -a 0 -i 0 -k RTR
r -t 2.558147323 -s 26 -d -1 -p AODV -e 48 -c 2 -a 0 -i 0 -k RTR
r -t 2.558147323 -s 82 -d -1 -p AODV -e 48 -c 2 -a 0 -i 0 -k RTR
r -t 2.558147324 -s 56 -d -1 -p AODV -e 48 -c 2 -a 0 -i 0 -k RTR
r -t 2.558147325 -s 72 -d -1 -p AODV -e 48 -c 2 -a 0 -i 0 -k RTR
r -t 2.558147330 -s 7 -d -1 -p AODV -e 48 -c 2 -a 0 -i 0 -k RTR
r -t 2.558147332 -s 75 -d -1 -p AODV -e 48 -c 2 -a 0 -i 0 -k RTR
r -t 2.558147339 -s 45 -d -1 -p AODV -e 48 -c 2 -a 0 -i 0 -k RTR
r -t 2.558147346 -s 28 -d -1 -p AODV -e 48 -c 2 -a 0 -i 0 -k RTR
r -t 2.558147346 -s 84 -d -1 -p AODV -e 48 -c 2 -a 0 -i 0 -k RTR
r -t 2.558147351 -s 99 -d -1 -p AODV -e 48 -c 2 -a 0 -i 0 -k RTR
r -t 2.558147377 -s 27 -d -1 -p AODV -e 48 -c 2 -a 0 -i 0 -k RTR
r -t 2.558147398 -s 17 -d -1 -p AODV -e 48 -c 2 -a 0 -i 0 -k RTR
r -t 2.558147399 -s 46 -d -1 -p AODV -e 48 -c 2 -a 0 -i 0 -k RTR
r -t 2.558147400 -s 36 -d -1 -p AODV -e 48 -c 2 -a 0 -i 0 -k RTR
r -t 2.558147407 -s 30 -d -1 -p AODV -e 48 -c 2 -a 0 -i 0 -k RTR
r -t 2.558147408 -s 38 -d -1 -p AODV -e 48 -c 2 -a 0 -i 0 -k RTR
r -t 2.558147409 -s 23 -d -1 -p AODV -e 48 -c 2 -a 0 -i 0 -k RTR
r -t 2.558147416 -s 11 -d -1 -p AODV -e 48 -c 2 -a 0 -i 0 -k RTR
r -t 2.558147426 -s 60 -d -1 -p AODV -e 48 -c 2 -a 0 -i 0 -k RTR
r -t 2.558147466 -s 74 -d -1 -p AODV -e 48 -c 2 -a 0 -i 0 -k RTR
r -t 2.558147471 -s 20 -d -1 -p AODV -e 48 -c 2 -a 0 -i 0 -k RTR
r -t 2.558147474 -s 47 -d -1 -p AODV -e 48 -c 2 -a 0 -i 0 -k RTR
r -t 2.558147479 -s 98 -d -1 -p AODV -e 48 -c 2 -a 0 -i 0 -k RTR
r -t 2.558147504 -s 87 -d -1 -p AODV -e 48 -c 2 -a 0 -i 0 -k RTR
r -t 2.558147511 -s 97 -d -1 -p AODV -e 48 -c 2 -a 0 -i 0 -k RTR
r -t 2.558147516 -s 49 -d -1 -p AODV -e 48 -c 2 -a 0 -i 0 -k RTR
r -t 2.558147518 -s 12 -d -1 -p AODV -e 48 -c 2 -a 0 -i 0 -k RTR
r -t 2.558147526 -s 57 -d -1 -p AODV -e 48 -c 2 -a 0 -i 0 -k RTR
r -t 2.558147530 -s 52 -d -1 -p AODV -e 48 -c 2 -a 0 -i 0 -k RTR
r -t 2.558147544 -s 3 -d -1 -p AODV -e 48 -c 2 -a 0 -i 0 -k RTR
r -t 2.558147558 -s 92 -d -1 -p AODV -e 48 -c 2 -a 0 -i 0 -k RTR
r -t 2.558147570 -s 48 -d -1 -p AODV -e 48 -c 2 -a 0 -i 0 -k RTR
r -t 2.558147605 -s 10 -d -1 -p AODV -e 48 -c 2 -a 0 -i 0 -k RTR
r -t 2.558147618 -s 53 -d -1 -p AODV -e 48 -c 2 -a 0 -i 0 -k RTR
r -t 2.558147629 -s 69 -d -1 -p AODV -e 48 -c 2 -a 0 -i 0 -k RTR
r -t 2.558147632 -s 62 -d -1 -p AODV -e 48 -c 2 -a 0 -i 0 -k RTR
r -t 2.558147633 -s 70 -d -1 -p AODV -e 48 -c 2 -a 0 -i 0 -k RTR
r -t 2.558147636 -s 88 -d -1 -p AODV -e 48 -c 2 -a 0 -i 0 -k RTR
r -t 2.558147647 -s 76 -d -1 -p AODV -e 48 -c 2 -a 0 -i 0 -k RTR
r -t 2.558147664 -s 25 -d -1 -p AODV -e 48 -c 2 -a 0 -i 0 -k RTR
r -t 2.558147669 -s 65 -d -1 -p AODV -e 48 -c 2 -a 0 -i 0 -k RTR
r -t 2.558147691 -s 71 -d -1 -p AODV -e 48 -c 2 -a 0 -i 0 -k RTR
r -t 2.558147698 -s 77 -d -1 -p AODV -e 48 -c 2 -a 0 -i 0 -k RTR
r -t 2.558147702 -s 50 -d -1 -p AODV -e 48 -c 2 -a 0 -i 0 -k RTR
+ -t 2.558307104 -s 34 -d -1 -p AODV -e 48 -c 2 -a 0 -i 0 -k RTR 
- -t 2.558307104 -s 34 -d -1 -p AODV -e 48 -c 2 -a 0 -i 0 -k RTR
h -t 2.558307104 -s 34 -d -1 -p AODV -e 48 -c 2 -a 0 -i 0 -k RTR
+ -t 2.558466439 -s 43 -d -1 -p AODV -e 48 -c 2 -a 0 -i 0 -k RTR 
- -t 2.558466439 -s 43 -d -1 -p AODV -e 48 -c 2 -a 0 -i 0 -k RTR
h -t 2.558466439 -s 43 -d -1 -p AODV -e 48 -c 2 -a 0 -i 0 -k RTR
+ -t 2.558542336 -s 44 -d -1 -p AODV -e 48 -c 2 -a 0 -i 0 -k RTR 
- -t 2.558542336 -s 44 -d -1 -p AODV -e 48 -c 2 -a 0 -i 0 -k RTR
h -t 2.558542336 -s 44 -d -1 -p AODV -e 48 -c 2 -a 0 -i 0 -k RTR
+ -t 2.558563394 -s 25 -d -1 -p AODV -e 48 -c 2 -a 0 -i 0 -k RTR 
- -t 2.558563394 -s 25 -d -1 -p AODV -e 48 -c 2 -a 0 -i 0 -k RTR
h -t 2.558563394 -s 25 -d -1 -p AODV -e 48 -c 2 -a 0 -i 0 -k RTR
+ -t 2.558686858 -s 77 -d -1 -p AODV -e 48 -c 2 -a 0 -i 0 -k RTR 
- -t 2.558686858 -s 77 -d -1 -p AODV -e 48 -c 2 -a 0 -i 0 -k RTR
h -t 2.558686858 -s 77 -d -1 -p AODV -e 48 -c 2 -a 0 -i 0 -k RTR
+ -t 2.558734304 -s 72 -d -1 -p AODV -e 48 -c 2 -a 0 -i 0 -k RTR 
- -t 2.558734304 -s 72 -d -1 -p AODV -e 48 -c 2 -a 0 -i 0 -k RTR
h -t 2.558734304 -s 72 -d -1 -p AODV -e 48 -c 2 -a 0 -i 0 -k RTR
+ -t 2.558792173 -s 16 -d -1 -p AODV -e 48 -c 2 -a 0 -i 0 -k RTR 
- -t 2.558792173 -s 16 -d -1 -p AODV -e 48 -c 2 -a 0 -i 0 -k RTR
h -t 2.558792173 -s 16 -d -1 -p AODV -e 48 -c 2 -a 0 -i 0 -k RTR
+ -t 2.558812316 -s 74 -d -1 -p AODV -e 48 -c 2 -a 0 -i 0 -k RTR 
- -t 2.558812316 -s 74 -d -1 -p AODV -e 48 -c 2 -a 0 -i 0 -k RTR
h -t 2.558812316 -s 74 -d -1 -p AODV -e 48 -c 2 -a 0 -i 0 -k RTR
+ -t 2.558921642 -s 65 -d -1 -p AODV -e 48 -c 2 -a 0 -i 0 -k RTR 
- -t 2.558921642 -s 65 -d -1 -p AODV -e 48 -c 2 -a 0 -i 0 -k RTR
h -t 2.558921642 -s 65 -d -1 -p AODV -e 48 -c 2 -a 0 -i 0 -k RTR
+ -t 2.559338925 -s 19 -d -1 -p AODV -e 48 -c 2 -a 0 -i 0 -k RTR 
- -t 2.559338925 -s 19 -d -1 -p AODV -e 48 -c 2 -a 0 -i 0 -k RTR
h -t 2.559338925 -s 19 -d -1 -p AODV -e 48 -c 2 -a 0 -i 0 -k RTR
+ -t 2.559341849 -s 71 -d -1 -p AODV -e 48 -c 2 -a 0 -i 0 -k RTR 
- -t 2.559341849 -s 71 -d -1 -p AODV -e 48 -c 2 -a 0 -i 0 -k RTR
h -t 2.559341849 -s 71 -d -1 -p AODV -e 48 -c 2 -a 0 -i 0 -k RTR
+ -t 2.559665346 -s 38 -d -1 -p AODV -e 48 -c 2 -a 0 -i 0 -k RTR 
- -t 2.559665346 -s 38 -d -1 -p AODV -e 48 -c 2 -a 0 -i 0 -k RTR
h -t 2.559665346 -s 38 -d -1 -p AODV -e 48 -c 2 -a 0 -i 0 -k RTR
+ -t 2.559732394 -s 78 -d -1 -p AODV -e 48 -c 2 -a 0 -i 0 -k RTR 
- -t 2.559732394 -s 78 -d -1 -p AODV -e 48 -c 2 -a 0 -i 0 -k RTR
h -t 2.559732394 -s 78 -d -1 -p AODV -e 48 -c 2 -a 0 -i 0 -k RTR
+ -t 2.559766117 -s 92 -d -1 -p AODV -e 48 -c 2 -a 0 -i 0 -k RTR 
- -t 2.559766117 -s 92 -d -1 -p AODV -e 48 -c 2 -a 0 -i 0 -k RTR
h -t 2.559766117 -s 92 -d -1 -p AODV -e 48 -c 2 -a 0 -i 0 -k RTR
+ -t 2.559812131 -s 88 -d -1 -p AODV -e 48 -c 2 -a 0 -i 0 -k RTR 
- -t 2.559812131 -s 88 -d -1 -p AODV -e 48 -c 2 -a 0 -i 0 -k RTR
h -t 2.559812131 -s 88 -d -1 -p AODV -e 48 -c 2 -a 0 -i 0 -k RTR
+ -t 2.559859157 -s 13 -d -1 -p AODV -e 48 -c 2 -a 0 -i 0 -k RTR 
- -t 2.559859157 -s 13 -d -1 -p AODV -e 48 -c 2 -a 0 -i 0 -k RTR
h -t 2.559859157 -s 13 -d -1 -p AODV -e 48 -c 2 -a 0 -i 0 -k RTR
r -t 2.559873375 -s 44 -d -1 -p AODV -e 48 -c 2 -a 0 -i 0 -k RTR
r -t 2.559873427 -s 91 -d -1 -p AODV -e 48 -c 2 -a 0 -i 0 -k RTR
r -t 2.559873463 -s 17 -d -1 -p AODV -e 48 -c 2 -a 0 -i 0 -k RTR
r -t 2.559873464 -s 51 -d -1 -p AODV -e 48 -c 2 -a 0 -i 0 -k RTR
r -t 2.559873471 -s 58 -d -1 -p AODV -e 48 -c 2 -a 0 -i 0 -k RTR
r -t 2.559873488 -s 82 -d -1 -p AODV -e 48 -c 2 -a 0 -i 0 -k RTR
r -t 2.559873503 -s 37 -d -1 -p AODV -e 48 -c 2 -a 0 -i 0 -k RTR
r -t 2.559873509 -s 31 -d -1 -p AODV -e 48 -c 2 -a 0 -i 0 -k RTR
r -t 2.559873518 -s 18 -d -1 -p AODV -e 48 -c 2 -a 0 -i 0 -k RTR
r -t 2.559873541 -s 0 -d -1 -p AODV -e 48 -c 2 -a 0 -i 0 -k RTR
r -t 2.559873547 -s 11 -d -1 -p AODV -e 48 -c 2 -a 0 -i 0 -k RTR
r -t 2.559873551 -s 84 -d -1 -p AODV -e 48 -c 2 -a 0 -i 0 -k RTR
r -t 2.559873561 -s 86 -d -1 -p AODV -e 48 -c 2 -a 0 -i 0 -k RTR
r -t 2.559873572 -s 74 -d -1 -p AODV -e 48 -c 2 -a 0 -i 0 -k RTR
r -t 2.559873573 -s 7 -d -1 -p AODV -e 48 -c 2 -a 0 -i 0 -k RTR
r -t 2.559873575 -s 47 -d -1 -p AODV -e 48 -c 2 -a 0 -i 0 -k RTR
r -t 2.559873586 -s 16 -d -1 -p AODV -e 48 -c 2 -a 0 -i 0 -k RTR
r -t 2.559873589 -s 56 -d -1 -p AODV -e 48 -c 2 -a 0 -i 0 -k RTR
r -t 2.559873593 -s 52 -d -1 -p AODV -e 48 -c 2 -a 0 -i 0 -k RTR
r -t 2.559873609 -s 20 -d -1 -p AODV -e 48 -c 2 -a 0 -i 0 -k RTR
r -t 2.559873612 -s 10 -d -1 -p AODV -e 48 -c 2 -a 0 -i 0 -k RTR
r -t 2.559873629 -s 90 -d -1 -p AODV -e 48 -c 2 -a 0 -i 0 -k RTR
r -t 2.559873634 -s 87 -d -1 -p AODV -e 48 -c 2 -a 0 -i 0 -k RTR
r -t 2.559873635 -s 83 -d -1 -p AODV -e 48 -c 2 -a 0 -i 0 -k RTR
r -t 2.559873637 -s 26 -d -1 -p AODV -e 48 -c 2 -a 0 -i 0 -k RTR
r -t 2.559873651 -s 79 -d -1 -p AODV -e 48 -c 2 -a 0 -i 0 -k RTR
r -t 2.559873677 -s 12 -d -1 -p AODV -e 48 -c 2 -a 0 -i 0 -k RTR
r -t 2.559873694 -s 69 -d -1 -p AODV -e 48 -c 2 -a 0 -i 0 -k RTR
r -t 2.559873694 -s 57 -d -1 -p AODV -e 48 -c 2 -a 0 -i 0 -k RTR
r -t 2.559873696 -s 2 -d -1 -p AODV -e 48 -c 2 -a 0 -i 0 -k RTR
r -t 2.559873769 -s 13 -d -1 -p AODV -e 48 -c 2 -a 0 -i 0 -k RTR
r -t 2.559873771 -s 85 -d -1 -p AODV -e 48 -c 2 -a 0 -i 0 -k RTR
r -t 2.559873775 -s 1 -d -1 -p AODV -e 48 -c 2 -a 0 -i 0 -k RTR
r -t 2.559873789 -s 3 -d -1 -p AODV -e 48 -c 2 -a 0 -i 0 -k RTR
r -t 2.559873798 -s 24 -d -1 -p AODV -e 48 -c 2 -a 0 -i 0 -k RTR
r -t 2.559873814 -s 68 -d -1 -p AODV -e 48 -c 2 -a 0 -i 0 -k RTR
r -t 2.559873817 -s 33 -d -1 -p AODV -e 48 -c 2 -a 0 -i 0 -k RTR
r -t 2.559873844 -s 62 -d -1 -p AODV -e 48 -c 2 -a 0 -i 0 -k RTR
r -t 2.559873851 -s 66 -d -1 -p AODV -e 48 -c 2 -a 0 -i 0 -k RTR
r -t 2.559873870 -s 43 -d -1 -p AODV -e 48 -c 2 -a 0 -i 0 -k RTR
r -t 2.559873904 -s 21 -d -1 -p AODV -e 48 -c 2 -a 0 -i 0 -k RTR
r -t 2.559873915 -s 99 -d -1 -p AODV -e 48 -c 2 -a 0 -i 0 -k RTR
r -t 2.559873916 -s 71 -d -1 -p AODV -e 48 -c 2 -a 0 -i 0 -k RTR
r -t 2.559873932 -s 75 -d -1 -p AODV -e 48 -c 2 -a 0 -i 0 -k RTR
r -t 2.559873943 -s 55 -d -1 -p AODV -e 48 -c 2 -a 0 -i 0 -k RTR
r -t 2.559873946 -s 49 -d -1 -p AODV -e 48 -c 2 -a 0 -i 0 -k RTR
r -t 2.559873955 -s 89 -d -1 -p AODV -e 48 -c 2 -a 0 -i 0 -k RTR
r -t 2.559873958 -s 14 -d -1 -p AODV -e 48 -c 2 -a 0 -i 0 -k RTR
r -t 2.559873962 -s 34 -d -1 -p AODV -e 48 -c 2 -a 0 -i 0 -k RTR
r -t 2.559873967 -s 53 -d -1 -p AODV -e 48 -c 2 -a 0 -i 0 -k RTR
r -t 2.559874012 -s 39 -d -1 -p AODV -e 48 -c 2 -a 0 -i 0 -k RTR
r -t 2.559874033 -s 19 -d -1 -p AODV -e 48 -c 2 -a 0 -i 0 -k RTR
r -t 2.559874045 -s 76 -d -1 -p AODV -e 48 -c 2 -a 0 -i 0 -k RTR
r -t 2.559874048 -s 22 -d -1 -p AODV -e 48 -c 2 -a 0 -i 0 -k RTR
r -t 2.559874075 -s 50 -d -1 -p AODV -e 48 -c 2 -a 0 -i 0 -k RTR
r -t 2.559874079 -s 64 -d -1 -p AODV -e 48 -c 2 -a 0 -i 0 -k RTR
r -t 2.559874095 -s 5 -d -1 -p AODV -e 48 -c 2 -a 0 -i 0 -k RTR
r -t 2.559874098 -s 4 -d -1 -p AODV -e 48 -c 2 -a 0 -i 0 -k RTR
r -t 2.559874109 -s 15 -d -1 -p AODV -e 48 -c 2 -a 0 -i 0 -k RTR
r -t 2.559874112 -s 98 -d -1 -p AODV -e 48 -c 2 -a 0 -i 0 -k RTR
r -t 2.559874112 -s 6 -d -1 -p AODV -e 48 -c 2 -a 0 -i 0 -k RTR
r -t 2.559874118 -s 93 -d -1 -p AODV -e 48 -c 2 -a 0 -i 0 -k RTR
r -t 2.559874122 -s 8 -d -1 -p AODV -e 48 -c 2 -a 0 -i 0 -k RTR
r -t 2.559874125 -s 61 -d -1 -p AODV -e 48 -c 2 -a 0 -i 0 -k RTR
r -t 2.559874132 -s 36 -d -1 -p AODV -e 48 -c 2 -a 0 -i 0 -k RTR
r -t 2.559874134 -s 78 -d -1 -p AODV -e 48 -c 2 -a 0 -i 0 -k RTR
r -t 2.559874140 -s 38 -d -1 -p AODV -e 48 -c 2 -a 0 -i 0 -k RTR
r -t 2.559874154 -s 88 -d -1 -p AODV -e 48 -c 2 -a 0 -i 0 -k RTR
r -t 2.559874158 -s 94 -d -1 -p AODV -e 48 -c 2 -a 0 -i 0 -k RTR
+ -t 2.559914131 -s 90 -d -1 -p AODV -e 48 -c 2 -a 0 -i 0 -k RTR 
- -t 2.559914131 -s 90 -d -1 -p AODV -e 48 -c 2 -a 0 -i 0 -k RTR
h -t 2.559914131 -s 90 -d -1 -p AODV -e 48 -c 2 -a 0 -i 0 -k RTR
+ -t 2.560073452 -s 15 -d -1 -p AODV -e 48 -c 2 -a 0 -i 0 -k RTR 
- -t 2.560073452 -s 15 -d -1 -p AODV -e 48 -c 2 -a 0 -i 0 -k RTR
h -t 2.560073452 -s 15 -d -1 -p AODV -e 48 -c 2 -a 0 -i 0 -k RTR
+ -t 2.560076689 -s 76 -d -1 -p AODV -e 48 -c 2 -a 0 -i 0 -k RTR 
- -t 2.560076689 -s 76 -d -1 -p AODV -e 48 -c 2 -a 0 -i 0 -k RTR
h -t 2.560076689 -s 76 -d -1 -p AODV -e 48 -c 2 -a 0 -i 0 -k RTR
+ -t 2.560206351 -s 57 -d -1 -p AODV -e 48 -c 2 -a 0 -i 0 -k RTR 
- -t 2.560206351 -s 57 -d -1 -p AODV -e 48 -c 2 -a 0 -i 0 -k RTR
h -t 2.560206351 -s 57 -d -1 -p AODV -e 48 -c 2 -a 0 -i 0 -k RTR
+ -t 2.560223280 -s 21 -d -1 -p AODV -e 48 -c 2 -a 0 -i 0 -k RTR 
- -t 2.560223280 -s 21 -d -1 -p AODV -e 48 -c 2 -a 0 -i 0 -k RTR
h -t 2.560223280 -s 21 -d -1 -p AODV -e 48 -c 2 -a 0 -i 0 -k RTR
+ -t 2.560288688 -s 37 -d -1 -p AODV -e 48 -c 2 -a 0 -i 0 -k RTR 
- -t 2.560288688 -s 37 -d -1 -p AODV -e 48 -c 2 -a 0 -i 0 -k RTR
h -t 2.560288688 -s 37 -d -1 -p AODV -e 48 -c 2 -a 0 -i 0 -k RTR
+ -t 2.560415630 -s 82 -d -1 -p AODV -e 48 -c 2 -a 0 -i 0 -k RTR 
- -t 2.560415630 -s 82 -d -1 -p AODV -e 48 -c 2 -a 0 -i 0 -k RTR
h -t 2.560415630 -s 82 -d -1 -p AODV -e 48 -c 2 -a 0 -i 0 -k RTR
+ -t 2.560437115 -s 84 -d -1 -p AODV -e 48 -c 2 -a 0 -i 0 -k RTR 
- -t 2.560437115 -s 84 -d -1 -p AODV -e 48 -c 2 -a 0 -i 0 -k RTR
h -t 2.560437115 -s 84 -d -1 -p AODV -e 48 -c 2 -a 0 -i 0 -k RTR
+ -t 2.560502672 -s 91 -d -1 -p AODV -e 48 -c 2 -a 0 -i 0 -k RTR 
- -t 2.560502672 -s 91 -d -1 -p AODV -e 48 -c 2 -a 0 -i 0 -k RTR
h -t 2.560502672 -s 91 -d -1 -p AODV -e 48 -c 2 -a 0 -i 0 -k RTR
+ -t 2.560776120 -s 97 -d -1 -p AODV -e 48 -c 2 -a 0 -i 0 -k RTR 
- -t 2.560776120 -s 97 -d -1 -p AODV -e 48 -c 2 -a 0 -i 0 -k RTR
h -t 2.560776120 -s 97 -d -1 -p AODV -e 48 -c 2 -a 0 -i 0 -k RTR
+ -t 2.560795054 -s 48 -d -1 -p AODV -e 48 -c 2 -a 0 -i 0 -k RTR 
- -t 2.560795054 -s 48 -d -1 -p AODV -e 48 -c 2 -a 0 -i 0 -k RTR
h -t 2.560795054 -s 48 -d -1 -p AODV -e 48 -c 2 -a 0 -i 0 -k RTR
r -t 2.560812204 -s 70 -d -1 -p AODV -e 48 -c 2 -a 0 -i 0 -k RTR
r -t 2.560812281 -s 42 -d -1 -p AODV -e 48 -c 2 -a 0 -i 0 -k RTR
r -t 2.560812292 -s 77 -d -1 -p AODV -e 48 -c 2 -a 0 -i 0 -k RTR
r -t 2.560812317 -s 67 -d -1 -p AODV -e 48 -c 2 -a 0 -i 0 -k RTR
r -t 2.560812331 -s 32 -d -1 -p AODV -e 48 -c 2 -a 0 -i 0 -k RTR
r -t 2.560812338 -s 25 -d -1 -p AODV -e 48 -c 2 -a 0 -i 0 -k RTR
r -t 2.560812363 -s 76 -d -1 -p AODV -e 48 -c 2 -a 0 -i 0 -k RTR
r -t 2.560812374 -s 49 -d -1 -p AODV -e 48 -c 2 -a 0 -i 0 -k RTR
r -t 2.560812378 -s 98 -d -1 -p AODV -e 48 -c 2 -a 0 -i 0 -k RTR
r -t 2.560812381 -s 35 -d -1 -p AODV -e 48 -c 2 -a 0 -i 0 -k RTR
r -t 2.560812385 -s 81 -d -1 -p AODV -e 48 -c 2 -a 0 -i 0 -k RTR
r -t 2.560812407 -s 50 -d -1 -p AODV -e 48 -c 2 -a 0 -i 0 -k RTR
r -t 2.560812409 -s 63 -d -1 -p AODV -e 48 -c 2 -a 0 -i 0 -k RTR
r -t 2.560812419 -s 92 -d -1 -p AODV -e 48 -c 2 -a 0 -i 0 -k RTR
r -t 2.560812440 -s 99 -d -1 -p AODV -e 48 -c 2 -a 0 -i 0 -k RTR
r -t 2.560812447 -s 54 -d -1 -p AODV -e 48 -c 2 -a 0 -i 0 -k RTR
r -t 2.560812448 -s 95 -d -1 -p AODV -e 48 -c 2 -a 0 -i 0 -k RTR
r -t 2.560812452 -s 53 -d -1 -p AODV -e 48 -c 2 -a 0 -i 0 -k RTR
r -t 2.560812459 -s 75 -d -1 -p AODV -e 48 -c 2 -a 0 -i 0 -k RTR
r -t 2.560812462 -s 29 -d -1 -p AODV -e 48 -c 2 -a 0 -i 0 -k RTR
r -t 2.560812465 -s 48 -d -1 -p AODV -e 48 -c 2 -a 0 -i 0 -k RTR
r -t 2.560812491 -s 41 -d -1 -p AODV -e 48 -c 2 -a 0 -i 0 -k RTR
r -t 2.560812506 -s 73 -d -1 -p AODV -e 48 -c 2 -a 0 -i 0 -k RTR
r -t 2.560812508 -s 65 -d -1 -p AODV -e 48 -c 2 -a 0 -i 0 -k RTR
r -t 2.560812534 -s 97 -d -1 -p AODV -e 48 -c 2 -a 0 -i 0 -k RTR
r -t 2.560812534 -s 9 -d -1 -p AODV -e 48 -c 2 -a 0 -i 0 -k RTR
r -t 2.560812554 -s 36 -d -1 -p AODV -e 48 -c 2 -a 0 -i 0 -k RTR
r -t 2.560812555 -s 38 -d -1 -p AODV -e 48 -c 2 -a 0 -i 0 -k RTR
r -t 2.560812574 -s 59 -d -1 -p AODV -e 48 -c 2 -a 0 -i 0 -k RTR
r -t 2.560812629 -s 3 -d -1 -p AODV -e 48 -c 2 -a 0 -i 0 -k RTR
r -t 2.560812642 -s 22 -d -1 -p AODV -e 48 -c 2 -a 0 -i 0 -k RTR
r -t 2.560812650 -s 66 -d -1 -p AODV -e 48 -c 2 -a 0 -i 0 -k RTR
r -t 2.560812658 -s 71 -d -1 -p AODV -e 48 -c 2 -a 0 -i 0 -k RTR
r -t 2.560812671 -s 26 -d -1 -p AODV -e 48 -c 2 -a 0 -i 0 -k RTR
r -t 2.560812674 -s 62 -d -1 -p AODV -e 48 -c 2 -a 0 -i 0 -k RTR
r -t 2.560812679 -s 90 -d -1 -p AODV -e 48 -c 2 -a 0 -i 0 -k RTR
r -t 2.560812697 -s 21 -d -1 -p AODV -e 48 -c 2 -a 0 -i 0 -k RTR
r -t 2.560812698 -s 85 -d -1 -p AODV -e 48 -c 2 -a 0 -i 0 -k RTR
r -t 2.560812699 -s 23 -d -1 -p AODV -e 48 -c 2 -a 0 -i 0 -k RTR
r -t 2.560812706 -s 64 -d -1 -p AODV -e 48 -c 2 -a 0 -i 0 -k RTR
r -t 2.560812747 -s 57 -d -1 -p AODV -e 48 -c 2 -a 0 -i 0 -k RTR
r -t 2.560812748 -s 30 -d -1 -p AODV -e 48 -c 2 -a 0 -i 0 -k RTR
r -t 2.560812767 -s 0 -d -1 -p AODV -e 48 -c 2 -a 0 -i 0 -k RTR
r -t 2.560812767 -s 61 -d -1 -p AODV -e 48 -c 2 -a 0 -i 0 -k RTR
r -t 2.560812767 -s 84 -d -1 -p AODV -e 48 -c 2 -a 0 -i 0 -k RTR
r -t 2.560812771 -s 40 -d -1 -p AODV -e 48 -c 2 -a 0 -i 0 -k RTR
r -t 2.560812784 -s 15 -d -1 -p AODV -e 48 -c 2 -a 0 -i 0 -k RTR
r -t 2.560812799 -s 46 -d -1 -p AODV -e 48 -c 2 -a 0 -i 0 -k RTR
r -t 2.560812803 -s 87 -d -1 -p AODV -e 48 -c 2 -a 0 -i 0 -k RTR
r -t 2.560812809 -s 43 -d -1 -p AODV -e 48 -c 2 -a 0 -i 0 -k RTR
r -t 2.560812817 -s 11 -d -1 -p AODV -e 48 -c 2 -a 0 -i 0 -k RTR
r -t 2.560812827 -s 96 -d -1 -p AODV -e 48 -c 2 -a 0 -i 0 -k RTR
r -t 2.560812840 -s 74 -d -1 -p AODV -e 48 -c 2 -a 0 -i 0 -k RTR
r -t 2.560812845 -s 47 -d -1 -p AODV -e 48 -c 2 -a 0 -i 0 -k RTR
r -t 2.560812848 -s 60 -d -1 -p AODV -e 48 -c 2 -a 0 -i 0 -k RTR
r -t 2.560812851 -s 55 -d -1 -p AODV -e 48 -c 2 -a 0 -i 0 -k RTR
r -t 2.560812854 -s 58 -d -1 -p AODV -e 48 -c 2 -a 0 -i 0 -k RTR
r -t 2.560812856 -s 51 -d -1 -p AODV -e 48 -c 2 -a 0 -i 0 -k RTR
r -t 2.560812856 -s 6 -d -1 -p AODV -e 48 -c 2 -a 0 -i 0 -k RTR
r -t 2.560812862 -s 86 -d -1 -p AODV -e 48 -c 2 -a 0 -i 0 -k RTR
r -t 2.560812883 -s 2 -d -1 -p AODV -e 48 -c 2 -a 0 -i 0 -k RTR
r -t 2.560812895 -s 78 -d -1 -p AODV -e 48 -c 2 -a 0 -i 0 -k RTR
r -t 2.560812898 -s 94 -d -1 -p AODV -e 48 -c 2 -a 0 -i 0 -k RTR
r -t 2.560812899 -s 5 -d -1 -p AODV -e 48 -c 2 -a 0 -i 0 -k RTR
r -t 2.560812911 -s 1 -d -1 -p AODV -e 48 -c 2 -a 0 -i 0 -k RTR
r -t 2.560812927 -s 45 -d -1 -p AODV -e 48 -c 2 -a 0 -i 0 -k RTR
r -t 2.560812929 -s 69 -d -1 -p AODV -e 48 -c 2 -a 0 -i 0 -k RTR
r -t 2.560812933 -s 44 -d -1 -p AODV -e 48 -c 2 -a 0 -i 0 -k RTR
r -t 2.560812938 -s 27 -d -1 -p AODV -e 48 -c 2 -a 0 -i 0 -k RTR
r -t 2.560812939 -s 18 -d -1 -p AODV -e 48 -c 2 -a 0 -i 0 -k RTR
r -t 2.560812952 -s 31 -d -1 -p AODV -e 48 -c 2 -a 0 -i 0 -k RTR
r -t 2.560812967 -s 39 -d -1 -p AODV -e 48 -c 2 -a 0 -i 0 -k RTR
r -t 2.560812979 -s 72 -d -1 -p AODV -e 48 -c 2 -a 0 -i 0 -k RTR
r -t 2.560812979 -s 8 -d -1 -p AODV -e 48 -c 2 -a 0 -i 0 -k RTR
r -t 2.560812982 -s 68 -d -1 -p AODV -e 48 -c 2 -a 0 -i 0 -k RTR
r -t 2.560812984 -s 37 -d -1 -p AODV -e 48 -c 2 -a 0 -i 0 -k RTR
+ -t 2.560951918 -s 70 -d -1 -p AODV -e 48 -c 2 -a 0 -i 0 -k RTR 
- -t 2.560951918 -s 70 -d -1 -p AODV -e 48 -c 2 -a 0 -i 0 -k RTR
h -t 2.560951918 -s 70 -d -1 -p AODV -e 48 -c 2 -a 0 -i 0 -k RTR
+ -t 2.561167747 -s 63 -d -1 -p AODV -e 48 -c 2 -a 0 -i 0 -k RTR 
- -t 2.561167747 -s 63 -d -1 -p AODV -e 48 -c 2 -a 0 -i 0 -k RTR
h -t 2.561167747 -s 63 -d -1 -p AODV -e 48 -c 2 -a 0 -i 0 -k RTR
+ -t 2.561366101 -s 9 -d -1 -p AODV -e 48 -c 2 -a 0 -i 0 -k RTR 
- -t 2.561366101 -s 9 -d -1 -p AODV -e 48 -c 2 -a 0 -i 0 -k RTR
h -t 2.561366101 -s 9 -d -1 -p AODV -e 48 -c 2 -a 0 -i 0 -k RTR
+ -t 2.561459269 -s 31 -d -1 -p AODV -e 48 -c 2 -a 0 -i 0 -k RTR 
- -t 2.561459269 -s 31 -d -1 -p AODV -e 48 -c 2 -a 0 -i 0 -k RTR
h -t 2.561459269 -s 31 -d -1 -p AODV -e 48 -c 2 -a 0 -i 0 -k RTR
+ -t 2.561465440 -s 22 -d -1 -p AODV -e 48 -c 2 -a 0 -i 0 -k RTR 
- -t 2.561465440 -s 22 -d -1 -p AODV -e 48 -c 2 -a 0 -i 0 -k RTR
h -t 2.561465440 -s 22 -d -1 -p AODV -e 48 -c 2 -a 0 -i 0 -k RTR
+ -t 2.561546944 -s 7 -d -1 -p AODV -e 48 -c 2 -a 0 -i 0 -k RTR 