V -t * -v 1.0a5 -a 0
W -t * -x 400 -y 400
A -t * -n 1 -p 0 -o 0x7fffffff -c 30 -a 1
A -t * -h 1 -m 1073741823 -s 0
n -t 0.000000 -s 0 -x 13.625107 -y 286.654334 -U 0.992859 -V -1.190803 -T 130.658273
n -t 0.000000 -s 1 -x 361.848211 -y 112.317968 -U -3.867810 -V 2.175095 -T 82.532188
n -t 0.000000 -s 2 -x 300.053281 -y 139.027374 -U 3.624265 -V -5.778166 -T 12.500264
n -t 0.000000 -s 3 -x 49.129421 -y 209.548165 -U 2.354761 -V -1.345928 -T 135.888923
n -t 0.000000 -s 4 -x 389.423206 -y 278.924507 -U -1.503383 -V 0.914781 -T 132.002776
n -t 0.000000 -s 5 -x 174.582063 -y 13.719678 -U 7.869194 -V 1.056379 -T 19.445797
n -t 0.000000 -s 6 -x 379.593337 -y 380.452280 -U -6.550654 -V -6.823507 -T 14.716211
n -t 0.000000 -s 7 -x 276.646074 -y 98.170964 -U 4.943399 -V -4.956871 -T 4.062800
n -t 0.000000 -s 8 -x 226.515721 -y 192.901855 -U 1.459055 -V -8.106762 -T 22.829759
n -t 0.000000 -s 9 -x 18.171571 -y 191.524365 -U 6.277587 -V 6.637248 -T 21.172786
n -t 0.000000 -s 10 -x 27.864130 -y 178.260316 -U 1.441218 -V 0.329951 -T 83.354076
n -t 0.000000 -s 11 -x 160.540368 -y 231.157970 -U 3.607127 -V -7.522534 -T 23.587730
n -t 0.000000 -s 12 -x 348.151808 -y 237.528738 -U 4.133926 -V 5.528457 -T 5.339947
n -t 0.000000 -s 13 -x 170.829300 -y 75.754586 -U -1.381717 -V 2.648560 -T 74.754431
n -t 0.000000 -s 14 -x 72.536682 -y 89.908699 -U 2.079006 -V -0.057746 -T 118.003006
n -t 0.000000 -s 15 -x 63.675249 -y 164.052628 -U 4.602706 -V -1.082231 -T 67.452767
n -t 0.000000 -s 16 -x 101.875092 -y 216.859729 -U 0.254910 -V -0.147173 -T 131.722756
n -t 0.000000 -s 17 -x 200.985774 -y 344.595685 -U -1.122582 -V -0.144623 -T 77.903929
n -t 0.000000 -s 18 -x 8.332047 -y 332.696998 -U 4.581240 -V -1.765158 -T 58.826004
n -t 0.000000 -s 19 -x 376.931866 -y 288.937980 -U -2.472930 -V -2.134413 -T 99.231293
+ -t 0.008749440 -s 0 -d -1 -p message -e 32 -c 2 -a 0 -i 0 -k RTR 
- -t 0.008749440 -s 0 -d -1 -p message -e 32 -c 2 -a 0 -i 0 -k RTR
h -t 0.008749440 -s 0 -d -1 -p message -e 32 -c 2 -a 0 -i 0 -k RTR
r -t 0.009789594 -s 18 -d -1 -p message -e 32 -c 2 -a 0 -i 0 -k RTR
r -t 0.009789723 -s 3 -d -1 -p message -e 32 -c 2 -a 0 -i 0 -k RTR
r -t 0.009789757 -s 9 -d -1 -p message -e 32 -c 2 -a 0 -i 0 -k RTR
r -t 0.009789804 -s 10 -d -1 -p message -e 32 -c 2 -a 0 -i 0 -k RTR
r -t 0.009789815 -s 16 -d -1 -p message -e 32 -c 2 -a 0 -i 0 -k RTR
r -t 0.009789881 -s 15 -d -1 -p message -e 32 -c 2 -a 0 -i 0 -k RTR
r -t 0.009789964 -s 11 -d -1 -p message -e 32 -c 2 -a 0 -i 0 -k RTR
r -t 0.009790094 -s 17 -d -1 -p message -e 32 -c 2 -a 0 -i 0 -k RTR
r -t 0.009790125 -s 14 -d -1 -p message -e 32 -c 2 -a 0 -i 0 -k RTR
r -t 0.009790215 -s 8 -d -1 -p message -e 32 -c 2 -a 0 -i 0 -k RTR
+ -t 0.033595809 -s 2 -d -1 -p message -e 32 -c 2 -a 0 -i 1 -k RTR 
- -t 0.033595809 -s 2 -d -1 -p message -e 32 -c 2 -a 0 -i 1 -k RTR
h -t 0.033595809 -s 2 -d -1 -p message -e 32 -c 2 -a 0 -i 1 -k RTR
r -t 0.034595966 -s 7 -d -1 -p message -e 32 -c 2 -a 0 -i 1 -k RTR
r -t 0.034596033 -s 1 -d -1 -p message -e 32 -c 2 -a 0 -i 1 -k RTR
r -t 0.034596113 -s 8 -d -1 -p message -e 32 -c 2 -a 0 -i 1 -k RTR
r -t 0.034596176 -s 12 -d -1 -p message -e 32 -c 2 -a 0 -i 1 -k RTR
r -t 0.034596289 -s 13 -d -1 -p message -e 32 -c 2 -a 0 -i 1 -k RTR
r -t 0.034596363 -s 4 -d -1 -p message -e 32 -c 2 -a 0 -i 1 -k RTR
r -t 0.034596366 -s 11 -d -1 -p message -e 32 -c 2 -a 0 -i 1 -k RTR
r -t 0.034596371 -s 19 -d -1 -p message -e 32 -c 2 -a 0 -i 1 -k RTR
r -t 0.034596399 -s 5 -d -1 -p message -e 32 -c 2 -a 0 -i 1 -k RTR
r -t 0.034596520 -s 16 -d -1 -p message -e 32 -c 2 -a 0 -i 1 -k RTR
r -t 0.034596571 -s 17 -d -1 -p message -e 32 -c 2 -a 0 -i 1 -k RTR
r -t 0.034596585 -s 14 -d -1 -p message -e 32 -c 2 -a 0 -i 1 -k RTR
r -t 0.034596602 -s 15 -d -1 -p message -e 32 -c 2 -a 0 -i 1 -k RTR
+ -t 0.093987367 -s 13 -d -1 -p message -e 32 -c 2 -a 0 -i 2 -k RTR 
- -t 0.093987367 -s 13 -d -1 -p message -e 32 -c 2 -a 0 -i 2 -k RTR
h -t 0.093987367 -s 13 -d -1 -p message -e 32 -c 2 -a 0 -i 2 -k RTR
r -t 0.095167575 -s 5 -d -1 -p message -e 32 -c 2 -a 0 -i 2 -k RTR
r -t 0.095167697 -s 14 -d -1 -p message -e 32 -c 2 -a 0 -i 2 -k RTR
r -t 0.095167730 -s 7 -d -1 -p message -e 32 -c 2 -a 0 -i 2 -k RTR
r -t 0.095167797 -s 8 -d -1 -p message -e 32 -c 2 -a 0 -i 2 -k RTR
r -t 0.095167828 -s 15 -d -1 -p message -e 32 -c 2 -a 0 -i 2 -k RTR
r -t 0.095167847 -s 2 -d -1 -p message -e 32 -c 2 -a 0 -i 2 -k RTR
r -t 0.095167883 -s 11 -d -1 -p message -e 32 -c 2 -a 0 -i 2 -k RTR
r -t 0.095167890 -s 16 -d -1 -p message -e 32 -c 2 -a 0 -i 2 -k RTR
r -t 0.095167953 -s 10 -d -1 -p message -e 32 -c 2 -a 0 -i 2 -k RTR
r -t 0.095167969 -s 3 -d -1 -p message -e 32 -c 2 -a 0 -i 2 -k RTR
r -t 0.095168005 -s 9 -d -1 -p message -e 32 -c 2 -a 0 -i 2 -k RTR
r -t 0.095168015 -s 1 -d -1 -p message -e 32 -c 2 -a 0 -i 2 -k RTR
r -t 0.095168169 -s 12 -d -1 -p message -e 32 -c 2 -a 0 -i 2 -k RTR
+ -t 0.183018832 -s 3 -d -1 -p message -e 32 -c 2 -a 0 -i 3 -k RTR 
- -t 0.183018832 -s 3 -d -1 -p message -e 32 -c 2 -a 0 -i 3 -k RTR
h -t 0.183018832 -s 3 -d -1 -p message -e 32 -c 2 -a 0 -i 3 -k RTR
r -t 0.183978947 -s 9 -d -1 -p message -e 32 -c 2 -a 0 -i 3 -k RTR
r -t 0.183978958 -s 10 -d -1 -p message -e 32 -c 2 -a 0 -i 3 -k RTR
r -t 0.183978992 -s 15 -d -1 -p message -e 32 -c 2 -a 0 -i 3 -k RTR
r -t 0.183979008 -s 16 -d -1 -p message -e 32 -c 2 -a 0 -i 3 -k RTR
r -t 0.183979115 -s 0 -d -1 -p message -e 32 -c 2 -a 0 -i 3 -k RTR
r -t 0.183979210 -s 11 -d -1 -p message -e 32 -c 2 -a 0 -i 3 -k RTR
r -t 0.183979238 -s 14 -d -1 -p message -e 32 -c 2 -a 0 -i 3 -k RTR
r -t 0.183979264 -s 18 -d -1 -p message -e 32 -c 2 -a 0 -i 3 -k RTR
r -t 0.183979426 -s 8 -d -1 -p message -e 32 -c 2 -a 0 -i 3 -k RTR
r -t 0.183979432 -s 13 -d -1 -p message -e 32 -c 2 -a 0 -i 3 -k RTR
r -t 0.183979508 -s 17 -d -1 -p message -e 32 -c 2 -a 0 -i 3 -k RTR
r -t 0.183979608 -s 5 -d -1 -p message -e 32 -c 2 -a 0 -i 3 -k RTR
+ -t 0.189369694 -s 19 -d -1 -p message -e 32 -c 2 -a 0 -i 4 -k RTR 
- -t 0.189369694 -s 19 -d -1 -p message -e 32 -c 2 -a 0 -i 4 -k RTR
h -t 0.189369694 -s 19 -d -1 -p message -e 32 -c 2 -a 0 -i 4 -k RTR
r -t 0.190289746 -s 4 -d -1 -p message -e 32 -c 2 -a 0 -i 4 -k RTR
r -t 0.190289884 -s 12 -d -1 -p message -e 32 -c 2 -a 0 -i 4 -k RTR
r -t 0.190289996 -s 6 -d -1 -p message -e 32 -c 2 -a 0 -i 4 -k RTR
r -t 0.190290256 -s 2 -d -1 -p message -e 32 -c 2 -a 0 -i 4 -k RTR
r -t 0.190290282 -s 1 -d -1 -p message -e 32 -c 2 -a 0 -i 4 -k RTR
r -t 0.190290289 -s 8 -d -1 -p message -e 32 -c 2 -a 0 -i 4 -k RTR
r -t 0.190290309 -s 17 -d -1 -p message -e 32 -c 2 -a 0 -i 4 -k RTR
r -t 0.190290412 -s 7 -d -1 -p message -e 32 -c 2 -a 0 -i 4 -k RTR
r -t 0.190290438 -s 11 -d -1 -p message -e 32 -c 2 -a 0 -i 4 -k RTR
+ -t 0.237079147 -s 15 -d -1 -p message -e 32 -c 2 -a 0 -i 5 -k RTR 
- -t 0.237079147 -s 15 -d -1 -p message -e 32 -c 2 -a 0 -i 5 -k RTR
h -t 0.237079147 -s 15 -d -1 -p message -e 32 -c 2 -a 0 -i 5 -k RTR
r -t 0.238479278 -s 10 -d -1 -p message -e 32 -c 2 -a 0 -i 5 -k RTR
r -t 0.238479306 -s 3 -d -1 -p message -e 32 -c 2 -a 0 -i 5 -k RTR
r -t 0.238479326 -s 9 -d -1 -p message -e 32 -c 2 -a 0 -i 5 -k RTR
r -t 0.238479363 -s 16 -d -1 -p message -e 32 -c 2 -a 0 -i 5 -k RTR
r -t 0.238479395 -s 14 -d -1 -p message -e 32 -c 2 -a 0 -i 5 -k RTR
r -t 0.238479536 -s 11 -d -1 -p message -e 32 -c 2 -a 0 -i 5 -k RTR
r -t 0.238479589 -s 0 -d -1 -p message -e 32 -c 2 -a 0 -i 5 -k RTR
r -t 0.238479604 -s 13 -d -1 -p message -e 32 -c 2 -a 0 -i 5 -k RTR
r -t 0.238479695 -s 8 -d -1 -p message -e 32 -c 2 -a 0 -i 5 -k RTR
r -t 0.238479738 -s 18 -d -1 -p message -e 32 -c 2 -a 0 -i 5 -k RTR
r -t 0.238479770 -s 5 -d -1 -p message -e 32 -c 2 -a 0 -i 5 -k RTR
r -t 0.238479891 -s 7 -d -1 -p message -e 32 -c 2 -a 0 -i 5 -k RTR
r -t 0.238479901 -s 17 -d -1 -p message -e 32 -c 2 -a 0 -i 5 -k RTR
r -t 0.238479939 -s 2 -d -1 -p message -e 32 -c 2 -a 0 -i 5 -k RTR
+ -t 0.328398897 -s 12 -d -1 -p message -e 32 -c 2 -a 0 -i 6 -k RTR 
- -t 0.328398897 -s 12 -d -1 -p message -e 32 -c 2 -a 0 -i 6 -k RTR
h -t 0.328398897 -s 12 -d -1 -p message -e 32 -c 2 -a 0 -i 6 -k RTR
r -t 0.329719082 -s 19 -d -1 -p message -e 32 -c 2 -a 0 -i 6 -k RTR
r -t 0.329719083 -s 4 -d -1 -p message -e 32 -c 2 -a 0 -i 6 -k RTR
r -t 0.329719273 -s 2 -d -1 -p message -e 32 -c 2 -a 0 -i 6 -k RTR
r -t 0.329719319 -s 1 -d -1 -p message -e 32 -c 2 -a 0 -i 6 -k RTR
r -t 0.329719337 -s 8 -d -1 -p message -e 32 -c 2 -a 0 -i 6 -k RTR
r -t 0.329719369 -s 6 -d -1 -p message -e 32 -c 2 -a 0 -i 6 -k RTR
r -t 0.329719429 -s 7 -d -1 -p message -e 32 -c 2 -a 0 -i 6 -k RTR
r -t 0.329719504 -s 17 -d -1 -p message -e 32 -c 2 -a 0 -i 6 -k RTR
r -t 0.329719524 -s 11 -d -1 -p message -e 32 -c 2 -a 0 -i 6 -k RTR
r -t 0.329719703 -s 13 -d -1 -p message -e 32 -c 2 -a 0 -i 6 -k RTR
r -t 0.329719725 -s 16 -d -1 -p message -e 32 -c 2 -a 0 -i 6 -k RTR
+ -t 0.356296747 -s 18 -d -1 -p message -e 32 -c 2 -a 0 -i 7 -k RTR 
- -t 0.356296747 -s 18 -d -1 -p message -e 32 -c 2 -a 0 -i 7 -k RTR
h -t 0.356296747 -s 18 -d -1 -p message -e 32 -c 2 -a 0 -i 7 -k RTR
r -t 0.357596900 -s 0 -d -1 -p message -e 32 -c 2 -a 0 -i 7 -k RTR
r -t 0.357597178 -s 3 -d -1 -p message -e 32 -c 2 -a 0 -i 7 -k RTR
r -t 0.357597208 -s 9 -d -1 -p message -e 32 -c 2 -a 0 -i 7 -k RTR
r -t 0.357597238 -s 16 -d -1 -p message -e 32 -c 2 -a 0 -i 7 -k RTR
r -t 0.357597263 -s 10 -d -1 -p message -e 32 -c 2 -a 0 -i 7 -k RTR
r -t 0.357597337 -s 15 -d -1 -p message -e 32 -c 2 -a 0 -i 7 -k RTR
r -t 0.357597359 -s 11 -d -1 -p message -e 32 -c 2 -a 0 -i 7 -k RTR
r -t 0.357597383 -s 17 -d -1 -p message -e 32 -c 2 -a 0 -i 7 -k RTR
+ -t 0.477970060 -s 8 -d -1 -p message -e 32 -c 2 -a 0 -i 8 -k RTR 
- -t 0.477970060 -s 8 -d -1 -p message -e 32 -c 2 -a 0 -i 8 -k RTR
h -t 0.477970060 -s 8 -d -1 -p message -e 32 -c 2 -a 0 -i 8 -k RTR
r -t 0.478950312 -s 11 -d -1 -p message -e 32 -c 2 -a 0 -i 8 -k RTR
r -t 0.478950365 -s 2 -d -1 -p message -e 32 -c 2 -a 0 -i 8 -k RTR
r -t 0.478950416 -s 7 -d -1 -p message -e 32 -c 2 -a 0 -i 8 -k RTR
r -t 0.478950479 -s 13 -d -1 -p message -e 32 -c 2 -a 0 -i 8 -k RTR
r -t 0.478950488 -s 16 -d -1 -p message -e 32 -c 2 -a 0 -i 8 -k RTR
r -t 0.478950504 -s 12 -d -1 -p message -e 32 -c 2 -a 0 -i 8 -k RTR
r -t 0.478950570 -s 1 -d -1 -p message -e 32 -c 2 -a 0 -i 8 -k RTR
r -t 0.478950586 -s 17 -d -1 -p message -e 32 -c 2 -a 0 -i 8 -k RTR
r -t 0.478950605 -s 15 -d -1 -p message -e 32 -c 2 -a 0 -i 8 -k RTR
r -t 0.478950654 -s 3 -d -1 -p message -e 32 -c 2 -a 0 -i 8 -k RTR
r -t 0.478950655 -s 19 -d -1 -p message -e 32 -c 2 -a 0 -i 8 -k RTR
r -t 0.478950665 -s 5 -d -1 -p message -e 32 -c 2 -a 0 -i 8 -k RTR
r -t 0.478950670 -s 14 -d -1 -p message -e 32 -c 2 -a 0 -i 8 -k RTR
r -t 0.478950677 -s 4 -d -1 -p message -e 32 -c 2 -a 0 -i 8 -k RTR
r -t 0.478950724 -s 10 -d -1 -p message -e 32 -c 2 -a 0 -i 8 -k RTR
r -t 0.478950748 -s 9 -d -1 -p message -e 32 -c 2 -a 0 -i 8 -k RTR
r -t 0.478950841 -s 0 -d -1 -p message -e 32 -c 2 -a 0 -i 8 -k RTR
r -t 0.478950861 -s 6 -d -1 -p message -e 32 -c 2 -a 0 -i 8 -k RTR
+ -t 0.618433690 -s 10 -d -1 -p message -e 32 -c 2 -a 0 -i 9 -k RTR 
- -t 0.618433690 -s 10 -d -1 -p message -e 32 -c 2 -a 0 -i 9 -k RTR
h -t 0.618433690 -s 10 -d -1 -p message -e 32 -c 2 -a 0 -i 9 -k RTR
r -t 0.619253752 -s 9 -d -1 -p message -e 32 -c 2 -a 0 -i 9 -k RTR
r -t 0.619253815 -s 3 -d -1 -p message -e 32 -c 2 -a 0 -i 9 -k RTR
r -t 0.619253826 -s 15 -d -1 -p message -e 32 -c 2 -a 0 -i 9 -k RTR
r -t 0.619253966 -s 16 -d -1 -p message -e 32 -c 2 -a 0 -i 9 -k RTR
r -t 0.619254022 -s 14 -d -1 -p message -e 32 -c 2 -a 0 -i 9 -k RTR
r -t 0.619254052 -s 0 -d -1 -p message -e 32 -c 2 -a 0 -i 9 -k RTR
r -t 0.619254165 -s 11 -d -1 -p message -e 32 -c 2 -a 0 -i 9 -k RTR
r -t 0.619254204 -s 18 -d -1 -p message -e 32 -c 2 -a 0 -i 9 -k RTR
r -t 0.619254269 -s 13 -d -1 -p message -e 32 -c 2 -a 0 -i 9 -k RTR
r -t 0.619254353 -s 8 -d -1 -p message -e 32 -c 2 -a 0 -i 9 -k RTR
r -t 0.619254433 -s 5 -d -1 -p message -e 32 -c 2 -a 0 -i 9 -k RTR
r -t 0.619254486 -s 17 -d -1 -p message -e 32 -c 2 -a 0 -i 9 -k RTR
+ -t 0.635391705 -s 6 -d -1 -p message -e 32 -c 2 -a 0 -i 10 -k RTR 
- -t 0.635391705 -s 6 -d -1 -p message -e 32 -c 2 -a 0 -i 10 -k RTR
h -t 0.635391705 -s 6 -d -1 -p message -e 32 -c 2 -a 0 -i 10 -k RTR
r -t 0.636232000 -s 19 -d -1 -p message -e 32 -c 2 -a 0 -i 10 -k RTR
r -t 0.636232030 -s 4 -d -1 -p message -e 32 -c 2 -a 0 -i 10 -k RTR
r -t 0.636232163 -s 12 -d -1 -p message -e 32 -c 2 -a 0 -i 10 -k RTR
r -t 0.636232298 -s 17 -d -1 -p message -e 32 -c 2 -a 0 -i 10 -k RTR
r -t 0.636232504 -s 8 -d -1 -p message -e 32 -c 2 -a 0 -i 10 -k RTR
+ -t 0.849100751 -s 17 -d -1 -p message -e 32 -c 2 -a 0 -i 11 -k RTR 
- -t 0.849100751 -s 17 -d -1 -p message -e 32 -c 2 -a 0 -i 11 -k RTR
h -t 0.849100751 -s 17 -d -1 -p message -e 32 -c 2 -a 0 -i 11 -k RTR
r -t 0.850221168 -s 11 -d -1 -p message -e 32 -c 2 -a 0 -i 11 -k RTR
r -t 0.850221287 -s 8 -d -1 -p message -e 32 -c 2 -a 0 -i 11 -k RTR
r -t 0.850221288 -s 16 -d -1 -p message -e 32 -c 2 -a 0 -i 11 -k RTR
r -t 0.850221340 -s 6 -d -1 -p message -e 32 -c 2 -a 0 -i 11 -k RTR
r -t 0.850221361 -s 12 -d -1 -p message -e 32 -c 2 -a 0 -i 11 -k RTR
r -t 0.850221364 -s 19 -d -1 -p message -e 32 -c 2 -a 0 -i 11 -k RTR
r -t 0.850221379 -s 18 -d -1 -p message -e 32 -c 2 -a 0 -i 11 -k RTR
r -t 0.850221400 -s 0 -d -1 -p message -e 32 -c 2 -a 0 -i 11 -k RTR
r -t 0.850221414 -s 4 -d -1 -p message -e 32 -c 2 -a 0 -i 11 -k RTR
r -t 0.850221423 -s 3 -d -1 -p message -e 32 -c 2 -a 0 -i 11 -k RTR
r -t 0.850221500 -s 15 -d -1 -p message -e 32 -c 2 -a 0 -i 11 -k RTR
r -t 0.850221517 -s 9 -d -1 -p message -e 32 -c 2 -a 0 -i 11 -k RTR
r -t 0.850221532 -s 2 -d -1 -p message -e 32 -c 2 -a 0 -i 11 -k RTR
r -t 0.850221545 -s 10 -d -1 -p message -e 32 -c 2 -a 0 -i 11 -k RTR
+ -t 0.882848098 -s 4 -d -1 -p message -e 32 -c 2 -a 0 -i 12 -k RTR 
- -t 0.882848098 -s 4 -d -1 -p message -e 32 -c 2 -a 0 -i 12 -k RTR
h -t 0.882848098 -s 4 -d -1 -p message -e 32 -c 2 -a 0 -i 12 -k RTR
r -t 0.883868149 -s 19 -d -1 -p message -e 32 -c 2 -a 0 -i 12 -k RTR
r -t 0.883868272 -s 12 -d -1 -p message -e 32 -c 2 -a 0 -i 12 -k RTR
r -t 0.883868417 -s 6 -d -1 -p message -e 32 -c 2 -a 0 -i 12 -k RTR
r -t 0.883868659 -s 1 -d -1 -p message -e 32 -c 2 -a 0 -i 12 -k RTR
r -t 0.883868660 -s 2 -d -1 -p message -e 32 -c 2 -a 0 -i 12 -k RTR
r -t 0.883868718 -s 8 -d -1 -p message -e 32 -c 2 -a 0 -i 12 -k RTR
r -t 0.883868761 -s 17 -d -1 -p message -e 32 -c 2 -a 0 -i 12 -k RTR
r -t 0.883868813 -s 7 -d -1 -p message -e 32 -c 2 -a 0 -i 12 -k RTR
r -t 0.883868868 -s 11 -d -1 -p message -e 32 -c 2 -a 0 -i 12 -k RTR
+ -t 1.115973632 -s 1 -d -1 -p message -e 32 -c 2 -a 0 -i 13 -k RTR 
- -t 1.115973632 -s 1 -d -1 -p message -e 32 -c 2 -a 0 -i 13 -k RTR
h -t 1.115973632 -s 1 -d -1 -p message -e 32 -c 2 -a 0 -i 13 -k RTR
r -t 1.116993820 -s 2 -d -1 -p message -e 32 -c 2 -a 0 -i 13 -k RTR
r -t 1.116993894 -s 7 -d -1 -p message -e 32 -c 2 -a 0 -i 13 -k RTR
r -t 1.116994063 -s 12 -d -1 -p message -e 32 -c 2 -a 0 -i 13 -k RTR
r -t 1.116994121 -s 8 -d -1 -p message -e 32 -c 2 -a 0 -i 13 -k RTR
r -t 1.116994192 -s 4 -d -1 -p message -e 32 -c 2 -a 0 -i 13 -k RTR
r -t 1.116994208 -s 19 -d -1 -p message -e 32 -c 2 -a 0 -i 13 -k RTR
r -t 1.116994271 -s 13 -d -1 -p message -e 32 -c 2 -a 0 -i 13 -k RTR
r -t 1.116994302 -s 5 -d -1 -p message -e 32 -c 2 -a 0 -i 13 -k RTR
r -t 1.116994370 -s 11 -d -1 -p message -e 32 -c 2 -a 0 -i 13 -k RTR
+ -t 1.285010704 -s 9 -d -1 -p message -e 32 -c 2 -a 0 -i 14 -k RTR 
- -t 1.285010704 -s 9 -d -1 -p message -e 32 -c 2 -a 0 -i 14 -k RTR
h -t 1.285010704 -s 9 -d -1 -p message -e 32 -c 2 -a 0 -i 14 -k RTR
+ -t 1.285996443 -s 14 -d -1 -p message -e 32 -c 2 -a 0 -i 15 -k RTR 
- -t 1.285996443 -s 14 -d -1 -p message -e 32 -c 2 -a 0 -i 15 -k RTR
h -t 1.285996443 -s 14 -d -1 -p message -e 32 -c 2 -a 0 -i 15 -k RTR
r -t 1.286410776 -s 10 -d -1 -p message -e 32 -c 2 -a 0 -i 14 -k RTR
r -t 1.286410794 -s 3 -d -1 -p message -e 32 -c 2 -a 0 -i 14 -k RTR
r -t 1.286410895 -s 15 -d -1 -p message -e 32 -c 2 -a 0 -i 14 -k RTR
r -t 1.286410963 -s 16 -d -1 -p message -e 32 -c 2 -a 0 -i 14 -k RTR
r -t 1.286410990 -s 0 -d -1 -p message -e 32 -c 2 -a 0 -i 14 -k RTR
r -t 1.286411106 -s 14 -d -1 -p message -e 32 -c 2 -a 0 -i 14 -k RTR
r -t 1.286411141 -s 18 -d -1 -p message -e 32 -c 2 -a 0 -i 14 -k RTR
r -t 1.286411173 -s 11 -d -1 -p message -e 32 -c 2 -a 0 -i 14 -k RTR
r -t 1.286411328 -s 13 -d -1 -p message -e 32 -c 2 -a 0 -i 14 -k RTR
r -t 1.286411381 -s 8 -d -1 -p message -e 32 -c 2 -a 0 -i 14 -k RTR
r -t 1.286411456 -s 17 -d -1 -p message -e 32 -c 2 -a 0 -i 14 -k RTR
r -t 1.286411516 -s 5 -d -1 -p message -e 32 -c 2 -a 0 -i 14 -k RTR
r -t 1.287301350 -s 15 -d -1 -p message -e 32 -c 2 -a 0 -i 15 -k RTR
r -t 1.287301421 -s 13 -d -1 -p message -e 32 -c 2 -a 0 -i 15 -k RTR
r -t 1.287301439 -s 10 -d -1 -p message -e 32 -c 2 -a 0 -i 15 -k RTR
r -t 1.287301507 -s 3 -d -1 -p message -e 32 -c 2 -a 0 -i 15 -k RTR
r -t 1.287301508 -s 9 -d -1 -p message -e 32 -c 2 -a 0 -i 15 -k RTR
r -t 1.287301539 -s 16 -d -1 -p message -e 32 -c 2 -a 0 -i 15 -k RTR
r -t 1.287301548 -s 5 -d -1 -p message -e 32 -c 2 -a 0 -i 15 -k RTR
r -t 1.287301638 -s 11 -d -1 -p message -e 32 -c 2 -a 0 -i 15 -k RTR
r -t 1.287301703 -s 8 -d -1 -p message -e 32 -c 2 -a 0 -i 15 -k RTR
r -t 1.287301788 -s 0 -d -1 -p message -e 32 -c 2 -a 0 -i 15 -k RTR
r -t 1.287301799 -s 7 -d -1 -p message -e 32 -c 2 -a 0 -i 15 -k RTR
r -t 1.287301884 -s 2 -d -1 -p message -e 32 -c 2 -a 0 -i 15 -k RTR
r -t 1.287301934 -s 18 -d -1 -p message -e 32 -c 2 -a 0 -i 15 -k RTR
+ -t 1.606148657 -s 5 -d -1 -p message -e 32 -c 2 -a 0 -i 16 -k RTR 
- -t 1.606148657 -s 5 -d -1 -p message -e 32 -c 2 -a 0 -i 16 -k RTR
h -t 1.606148657 -s 5 -d -1 -p message -e 32 -c 2 -a 0 -i 16 -k RTR
r -t 1.607268882 -s 13 -d -1 -p message -e 32 -c 2 -a 0 -i 16 -k RTR
r -t 1.607269067 -s 7 -d -1 -p message -e 32 -c 2 -a 0 -i 16 -k RTR
r -t 1.607269104 -s 14 -d -1 -p message -e 32 -c 2 -a 0 -i 16 -k RTR
r -t 1.607269207 -s 2 -d -1 -p message -e 32 -c 2 -a 0 -i 16 -k RTR
r -t 1.607269223 -s 8 -d -1 -p message -e 32 -c 2 -a 0 -i 16 -k RTR
r -t 1.607269282 -s 15 -d -1 -p message -e 32 -c 2 -a 0 -i 16 -k RTR
r -t 1.607269311 -s 1 -d -1 -p message -e 32 -c 2 -a 0 -i 16 -k RTR
r -t 1.607269340 -s 11 -d -1 -p message -e 32 -c 2 -a 0 -i 16 -k RTR
r -t 1.607269385 -s 16 -d -1 -p message -e 32 -c 2 -a 0 -i 16 -k RTR
r -t 1.607269413 -s 10 -d -1 -p message -e 32 -c 2 -a 0 -i 16 -k RTR
r -t 1.607269438 -s 3 -d -1 -p message -e 32 -c 2 -a 0 -i 16 -k RTR
r -t 1.607269475 -s 9 -d -1 -p message -e 32 -c 2 -a 0 -i 16 -k RTR
+ -t 1.638413333 -s 7 -d -1 -p message -e 32 -c 2 -a 0 -i 17 -k RTR 
- -t 1.638413333 -s 7 -d -1 -p message -e 32 -c 2 -a 0 -i 17 -k RTR
h -t 1.638413333 -s 7 -d -1 -p message -e 32 -c 2 -a 0 -i 17 -k RTR
r -t 1.639813483 -s 2 -d -1 -p message -e 32 -c 2 -a 0 -i 17 -k RTR
r -t 1.639813584 -s 1 -d -1 -p message -e 32 -c 2 -a 0 -i 17 -k RTR
r -t 1.639813685 -s 8 -d -1 -p message -e 32 -c 2 -a 0 -i 17 -k RTR
r -t 1.639813722 -s 13 -d -1 -p message -e 32 -c 2 -a 0 -i 17 -k RTR
r -t 1.639813742 -s 5 -d -1 -p message -e 32 -c 2 -a 0 -i 17 -k RTR
r -t 1.639813905 -s 12 -d -1 -p message -e 32 -c 2 -a 0 -i 17 -k RTR
r -t 1.639813916 -s 11 -d -1 -p message -e 32 -c 2 -a 0 -i 17 -k RTR
r -t 1.639814029 -s 14 -d -1 -p message -e 32 -c 2 -a 0 -i 17 -k RTR
r -t 1.639814048 -s 19 -d -1 -p message -e 32 -c 2 -a 0 -i 17 -k RTR
r -t 1.639814053 -s 4 -d -1 -p message -e 32 -c 2 -a 0 -i 17 -k RTR
r -t 1.639814073 -s 16 -d -1 -p message -e 32 -c 2 -a 0 -i 17 -k RTR
r -t 1.639814084 -s 15 -d -1 -p message -e 32 -c 2 -a 0 -i 17 -k RTR
+ -t 1.675969218 -s 11 -d -1 -p message -e 32 -c 2 -a 0 -i 18 -k RTR 
- -t 1.675969218 -s 11 -d -1 -p message -e 32 -c 2 -a 0 -i 18 -k RTR
h -t 1.675969218 -s 11 -d -1 -p message -e 32 -c 2 -a 0 -i 18 -k RTR
r -t 1.677229432 -s 16 -d -1 -p message -e 32 -c 2 -a 0 -i 18 -k RTR
r -t 1.677229464 -s 8 -d -1 -p message -e 32 -c 2 -a 0 -i 18 -k RTR
r -t 1.677229587 -s 15 -d -1 -p message -e 32 -c 2 -a 0 -i 18 -k RTR
r -t 1.677229598 -s 3 -d -1 -p message -e 32 -c 2 -a 0 -i 18 -k RTR
r -t 1.677229651 -s 17 -d -1 -p message -e 32 -c 2 -a 0 -i 18 -k RTR
r -t 1.677229679 -s 13 -d -1 -p message -e 32 -c 2 -a 0 -i 18 -k RTR
r -t 1.677229681 -s 9 -d -1 -p message -e 32 -c 2 -a 0 -i 18 -k RTR
r -t 1.677229691 -s 10 -d -1 -p message -e 32 -c 2 -a 0 -i 18 -k RTR
r -t 1.677229743 -s 14 -d -1 -p message -e 32 -c 2 -a 0 -i 18 -k RTR
r -t 1.677229768 -s 0 -d -1 -p message -e 32 -c 2 -a 0 -i 18 -k RTR
r -t 1.677229770 -s 2 -d -1 -p message -e 32 -c 2 -a 0 -i 18 -k RTR
r -t 1.677229801 -s 7 -d -1 -p message -e 32 -c 2 -a 0 -i 18 -k RTR
r -t 1.677229842 -s 18 -d -1 -p message -e 32 -c 2 -a 0 -i 18 -k RTR
r -t 1.677229853 -s 12 -d -1 -p message -e 32 -c 2 -a 0 -i 18 -k RTR
r -t 1.677229899 -s 5 -d -1 -p message -e 32 -c 2 -a 0 -i 18 -k RTR
r -t 1.677229934 -s 1 -d -1 -p message -e 32 -c 2 -a 0 -i 18 -k RTR
r -t 1.677229941 -s 19 -d -1 -p message -e 32 -c 2 -a 0 -i 18 -k RTR
r -t 1.677229981 -s 4 -d -1 -p message -e 32 -c 2 -a 0 -i 18 -k RTR
+ -t 1.723107868 -s 16 -d -1 -p message -e 32 -c 2 -a 0 -i 19 -k RTR 
- -t 1.723107868 -s 16 -d -1 -p message -e 32 -c 2 -a 0 -i 19 -k RTR
h -t 1.723107868 -s 16 -d -1 -p message -e 32 -c 2 -a 0 -i 19 -k RTR
r -t 1.724148035 -s 3 -d -1 -p message -e 32 -c 2 -a 0 -i 19 -k RTR
r -t 1.724148076 -s 15 -d -1 -p message -e 32 -c 2 -a 0 -i 19 -k RTR
r -t 1.724148083 -s 11 -d -1 -p message -e 32 -c 2 -a 0 -i 19 -k RTR
r -t 1.724148117 -s 9 -d -1 -p message -e 32 -c 2 -a 0 -i 19 -k RTR
r -t 1.724148139 -s 10 -d -1 -p message -e 32 -c 2 -a 0 -i 19 -k RTR
r -t 1.724148236 -s 0 -d -1 -p message -e 32 -c 2 -a 0 -i 19 -k RTR
r -t 1.724148300 -s 14 -d -1 -p message -e 32 -c 2 -a 0 -i 19 -k RTR
r -t 1.724148309 -s 8 -d -1 -p message -e 32 -c 2 -a 0 -i 19 -k RTR
r -t 1.724148342 -s 18 -d -1 -p message -e 32 -c 2 -a 0 -i 19 -k RTR
r -t 1.724148373 -s 13 -d -1 -p message -e 32 -c 2 -a 0 -i 19 -k RTR
r -t 1.724148402 -s 17 -d -1 -p message -e 32 -c 2 -a 0 -i 19 -k RTR
r -t 1.724148597 -s 5 -d -1 -p message -e 32 -c 2 -a 0 -i 19 -k RTR
r -t 1.724148608 -s 2 -d -1 -p message -e 32 -c 2 -a 0 -i 19 -k RTR
r -t 1.724148610 -s 7 -d -1 -p message -e 32 -c 2 -a 0 -i 19 -k RTR
+ -t 2.556838879 -s 1 -d -1 -p cbr -e 512 -c 2 -a 0 -i 20 -k AGT 
- -t 2.556838879 -s 1 -d -1 -p cbr -e 512 -c 2 -a 0 -i 20 -k AGT
h -t 2.556838879 -s 1 -d -1 -p cbr -e 512 -c 2 -a 0 -i 20 -k AGT
+ -t 2.556838879 -s 1 -d 2 -p cbr -e 532 -c 2 -a 0 -i 20 -k RTR 
- -t 2.556838879 -s 1 -d 2 -p cbr -e 532 -c 2 -a 0 -i 20 -k RTR
h -t 2.556838879 -s 1 -d 2 -p cbr -e 532 -c 2 -a 0 -i 20 -k RTR
r -t 2.566066884 -s 2 -d 2 -p cbr -e 532 -c 2 -a 0 -i 20 -k AGT
+ -t 2.694964626 -s 1 -d -1 -p cbr -e 512 -c 2 -a 0 -i 21 -k AGT 
- -t 2.694964626 -s 1 -d -1 -p cbr -e 512 -c 2 -a 0 -i 21 -k AGT
h -t 2.694964626 -s 1 -d -1 -p cbr -e 512 -c 2 -a 0 -i 21 -k AGT
+ -t 2.694964626 -s 1 -d 2 -p cbr -e 532 -c 2 -a 0 -i 21 -k RTR 
- -t 2.694964626 -s 1 -d 2 -p cbr -e 532 -c 2 -a 0 -i 21 -k RTR
h -t 2.694964626 -s 1 -d 2 -p cbr -e 532 -c 2 -a 0 -i 21 -k RTR
r -t 2.700721046 -s 2 -d 2 -p cbr -e 532 -c 2 -a 0 -i 21 -k AGT
+ -t 2.823927464 -s 1 -d -1 -p cbr -e 512 -c 2 -a 0 -i 22 -k AGT 
- -t 2.823927464 -s 1 -d -1 -p cbr -e 512 -c 2 -a 0 -i 22 -k AGT
h -t 2.823927464 -s 1 -d -1 -p cbr -e 512 -c 2 -a 0 -i 22 -k AGT
+ -t 2.823927464 -s 1 -d 2 -p cbr -e 532 -c 2 -a 0 -i 22 -k RTR 
- -t 2.823927464 -s 1 -d 2 -p cbr -e 532 -c 2 -a 0 -i 22 -k RTR
h -t 2.823927464 -s 1 -d 2 -p cbr -e 532 -c 2 -a 0 -i 22 -k RTR
r -t 2.829483872 -s 2 -d 2 -p cbr -e 532 -c 2 -a 0 -i 22 -k AGT
+ -t 2.894688976 -s 1 -d -1 -p cbr -e 512 -c 2 -a 0 -i 23 -k AGT 
- -t 2.894688976 -s 1 -d -1 -p cbr -e 512 -c 2 -a 0 -i 23 -k AGT
h -t 2.894688976 -s 1 -d -1 -p cbr -e 512 -c 2 -a 0 -i 23 -k AGT
+ -t 2.894688976 -s 1 -d 2 -p cbr -e 532 -c 2 -a 0 -i 23 -k RTR 
- -t 2.894688976 -s 1 -d 2 -p cbr -e 532 -c 2 -a 0 -i 23 -k RTR
h -t 2.894688976 -s 1 -d 2 -p cbr -e 532 -c 2 -a 0 -i 23 -k RTR
r -t 2.900605379 -s 2 -d 2 -p cbr -e 532 -c 2 -a 0 -i 23 -k AGT
+ -t 2.988411194 -s 1 -d -1 -p cbr -e 512 -c 2 -a 0 -i 24 -k AGT 
- -t 2.988411194 -s 1 -d -1 -p cbr -e 512 -c 2 -a 0 -i 24 -k AGT
h -t 2.988411194 -s 1 -d -1 -p cbr -e 512 -c 2 -a 0 -i 24 -k AGT
+ -t 2.988411194 -s 1 -d 2 -p cbr -e 532 -c 2 -a 0 -i 24 -k RTR 
- -t 2.988411194 -s 1 -d 2 -p cbr -e 532 -c 2 -a 0 -i 24 -k RTR
h -t 2.988411194 -s 1 -d 2 -p cbr -e 532 -c 2 -a 0 -i 24 -k RTR
r -t 2.993967589 -s 2 -d 2 -p cbr -e 532 -c 2 -a 0 -i 24 -k AGT
+ -t 3.128352657 -s 1 -d -1 -p cbr -e 512 -c 2 -a 0 -i 25 -k AGT 
- -t 3.128352657 -s 1 -d -1 -p cbr -e 512 -c 2 -a 0 -i 25 -k AGT
h -t 3.128352657 -s 1 -d -1 -p cbr -e 512 -c 2 -a 0 -i 25 -k AGT
+ -t 3.128352657 -s 1 -d 2 -p cbr -e 532 -c 2 -a 0 -i 25 -k RTR 
- -t 3.128352657 -s 1 -d 2 -p cbr -e 532 -c 2 -a 0 -i 25 -k RTR
h -t 3.128352657 -s 1 -d 2 -p cbr -e 532 -c 2 -a 0 -i 25 -k RTR
r -t 3.133869041 -s 2 -d 2 -p cbr -e 532 -c 2 -a 0 -i 25 -k AGT
+ -t 3.220645896 -s 1 -d -1 -p cbr -e 512 -c 2 -a 0 -i 26 -k AGT 
- -t 3.220645896 -s 1 -d -1 -p cbr -e 512 -c 2 -a 0 -i 26 -k AGT
h -t 3.220645896 -s 1 -d -1 -p cbr -e 512 -c 2 -a 0 -i 26 -k AGT
+ -t 3.220645896 -s 1 -d 2 -p cbr -e 532 -c 2 -a 0 -i 26 -k RTR 
- -t 3.220645896 -s 1 -d 2 -p cbr -e 532 -c 2 -a 0 -i 26 -k RTR
h -t 3.220645896 -s 1 -d 2 -p cbr -e 532 -c 2 -a 0 -i 26 -k RTR
r -t 3.226522273 -s 2 -d 2 -p cbr -e 532 -c 2 -a 0 -i 26 -k AGT
+ -t 3.319123306 -s 1 -d -1 -p cbr -e 512 -c 2 -a 0 -i 27 -k AGT 
- -t 3.319123306 -s 1 -d -1 -p cbr -e 512 -c 2 -a 0 -i 27 -k AGT
h -t 3.319123306 -s 1 -d -1 -p cbr -e 512 -c 2 -a 0 -i 27 -k AGT
+ -t 3.319123306 -s 1 -d 2 -p cbr -e 532 -c 2 -a 0 -i 27 -k RTR 
- -t 3.319123306 -s 1 -d 2 -p cbr -e 532 -c 2 -a 0 -i 27 -k RTR
h -t 3.319123306 -s 1 -d 2 -p cbr -e 532 -c 2 -a 0 -i 27 -k RTR
r -t 3.324799675 -s 2 -d 2 -p cbr -e 532 -c 2 -a 0 -i 27 -k AGT
+ -t 3.454201586 -s 1 -d -1 -p cbr -e 512 -c 2 -a 0 -i 28 -k AGT 
- -t 3.454201586 -s 1 -d -1 -p cbr -e 512 -c 2 -a 0 -i 28 -k AGT
h -t 3.454201586 -s 1 -d -1 -p cbr -e 512 -c 2 -a 0 -i 28 -k AGT
+ -t 3.454201586 -s 1 -d 2 -p cbr -e 532 -c 2 -a 0 -i 28 -k RTR 
- -t 3.454201586 -s 1 -d 2 -p cbr -e 532 -c 2 -a 0 -i 28 -k RTR
h -t 3.454201586 -s 1 -d 2 -p cbr -e 532 -c 2 -a 0 -i 28 -k RTR
r -t 3.459837945 -s 2 -d 2 -p cbr -e 532 -c 2 -a 0 -i 28 -k AGT
+ -t 3.510650488 -s 1 -d -1 -p cbr -e 512 -c 2 -a 0 -i 29 -k AGT 
- -t 3.510650488 -s 1 -d -1 -p cbr -e 512 -c 2 -a 0 -i 29 -k AGT
h -t 3.510650488 -s 1 -d -1 -p cbr -e 512 -c 2 -a 0 -i 29 -k AGT
+ -t 3.510650488 -s 1 -d 2 -p cbr -e 532 -c 2 -a 0 -i 29 -k RTR 
- -t 3.510650488 -s 1 -d 2 -p cbr -e 532 -c 2 -a 0 -i 29 -k RTR
h -t 3.510650488 -s 1 -d 2 -p cbr -e 532 -c 2 -a 0 -i 29 -k RTR
r -t 3.516246843 -s 2 -d 2 -p cbr -e 532 -c 2 -a 0 -i 29 -k AGT
+ -t 3.564600842 -s 1 -d -1 -p cbr -e 512 -c 2 -a 0 -i 30 -k AGT 
- -t 3.564600842 -s 1 -d -1 -p cbr -e 512 -c 2 -a 0 -i 30 -k AGT
h -t 3.564600842 -s 1 -d -1 -p cbr -e 512 -c 2 -a 0 -i 30 -k AGT
+ -t 3.564600842 -s 1 -d 2 -p cbr -e 532 -c 2 -a 0 -i 30 -k RTR 
- -t 3.564600842 -s 1 -d 2 -p cbr -e 532 -c 2 -a 0 -i 30 -k RTR
h -t 3.564600842 -s 1 -d 2 -p cbr -e 532 -c 2 -a 0 -i 30 -k RTR
r -t 3.570657193 -s 2 -d 2 -p cbr -e 532 -c 2 -a 0 -i 30 -k AGT
+ -t 3.637283912 -s 1 -d -1 -p cbr -e 512 -c 2 -a 0 -i 31 -k AGT 
- -t 3.637283912 -s 1 -d -1 -p cbr -e 512 -c 2 -a 0 -i 31 -k AGT
h -t 3.637283912 -s 1 -d -1 -p cbr -e 512 -c 2 -a 0 -i 31 -k AGT
+ -t 3.637283912 -s 1 -d 2 -p cbr -e 532 -c 2 -a 0 -i 31 -k RTR 
- -t 3.637283912 -s 1 -d 2 -p cbr -e 532 -c 2 -a 0 -i 31 -k RTR
h -t 3.637283912 -s 1 -d 2 -p cbr -e 532 -c 2 -a 0 -i 31 -k RTR
r -t 3.643000258 -s 2 -d 2 -p cbr -e 532 -c 2 -a 0 -i 31 -k AGT
+ -t 3.721280047 -s 1 -d -1 -p cbr -e 512 -c 2 -a 0 -i 32 -k AGT 
- -t 3.721280047 -s 1 -d -1 -p cbr -e 512 -c 2 -a 0 -i 32 -k AGT
h -t 3.721280047 -s 1 -d -1 -p cbr -e 512 -c 2 -a 0 -i 32 -k AGT
+ -t 3.721280047 -s 1 -d 2 -p cbr -e 532 -c 2 -a 0 -i 32 -k RTR 
- -t 3.721280047 -s 1 -d 2 -p cbr -e 532 -c 2 -a 0 -i 32 -k RTR
h -t 3.721280047 -s 1 -d 2 -p cbr -e 532 -c 2 -a 0 -i 32 -k RTR
r -t 3.727016387 -s 2 -d 2 -p cbr -e 532 -c 2 -a 0 -i 32 -k AGT
+ -t 3.814621076 -s 1 -d -1 -p cbr -e 512 -c 2 -a 0 -i 33 -k AGT 
- -t 3.814621076 -s 1 -d -1 -p cbr -e 512 -c 2 -a 0 -i 33 -k AGT
h -t 3.814621076 -s 1 -d -1 -p cbr -e 512 -c 2 -a 0 -i 33 -k AGT
+ -t 3.814621076 -s 1 -d 2 -p cbr -e 532 -c 2 -a 0 -i 33 -k RTR 
- -t 3.814621076 -s 1 -d 2 -p cbr -e 532 -c 2 -a 0 -i 33 -k RTR
h -t 3.814621076 -s 1 -d 2 -p cbr -e 532 -c 2 -a 0 -i 33 -k RTR
r -t 3.820297411 -s 2 -d 2 -p cbr -e 532 -c 2 -a 0 -i 33 -k AGT
+ -t 3.958612962 -s 1 -d -1 -p cbr -e 512 -c 2 -a 0 -i 34 -k AGT 
- -t 3.958612962 -s 1 -d -1 -p cbr -e 512 -c 2 -a 0 -i 34 -k AGT
h -t 3.958612962 -s 1 -d -1 -p cbr -e 512 -c 2 -a 0 -i 34 -k AGT
+ -t 3.958612962 -s 1 -d 2 -p cbr -e 532 -c 2 -a 0 -i 34 -k RTR 
- -t 3.958612962 -s 1 -d 2 -p cbr -e 532 -c 2 -a 0 -i 34 -k RTR
h -t 3.958612962 -s 1 -d 2 -p cbr -e 532 -c 2 -a 0 -i 34 -k RTR
r -t 3.964609287 -s 2 -d 2 -p cbr -e 532 -c 2 -a 0 -i 34 -k AGT
n -t 4.062800 -s 7 -x 296.730119 -y 78.032186 -U 1.034355 -V -8.740810 -T 5.027817
+ -t 4.104384915 -s 1 -d -1 -p cbr -e 512 -c 2 -a 0 -i 35 -k AGT 
- -t 4.104384915 -s 1 -d -1 -p cbr -e 512 -c 2 -a 0 -i 35 -k AGT
h -t 4.104384915 -s 1 -d -1 -p cbr -e 512 -c 2 -a 0 -i 35 -k AGT
+ -t 4.104384915 -s 1 -d 2 -p cbr -e 532 -c 2 -a 0 -i 35 -k RTR 
- -t 4.104384915 -s 1 -d 2 -p cbr -e 532 -c 2 -a 0 -i 35 -k RTR
h -t 4.104384915 -s 1 -d 2 -p cbr -e 532 -c 2 -a 0 -i 35 -k RTR
r -t 4.110001231 -s 2 -d 2 -p cbr -e 532 -c 2 -a 0 -i 35 -k AGT
+ -t 4.248887322 -s 1 -d -1 -p cbr -e 512 -c 2 -a 0 -i 36 -k AGT 
- -t 4.248887322 -s 1 -d -1 -p cbr -e 512 -c 2 -a 0 -i 36 -k AGT
h -t 4.248887322 -s 1 -d -1 -p cbr -e 512 -c 2 -a 0 -i 36 -k AGT
+ -t 4.248887322 -s 1 -d 2 -p cbr -e 532 -c 2 -a 0 -i 36 -k RTR 
- -t 4.248887322 -s 1 -d 2 -p cbr -e 532 -c 2 -a 0 -i 36 -k RTR
h -t 4.248887322 -s 1 -d 2 -p cbr -e 532 -c 2 -a 0 -i 36 -k RTR
r -t 4.254883630 -s 2 -d 2 -p cbr -e 532 -c 2 -a 0 -i 36 -k AGT
+ -t 4.305535827 -s 1 -d -1 -p cbr -e 512 -c 2 -a 0 -i 37 -k AGT 