M 0.00000 0 (13.63, 286.65, 0.00), (143.35, 131.07), 1.55
M 0.00000 1 (361.85, 112.32, 0.00), (42.63, 291.83), 4.44
M 0.00000 2 (300.05, 139.03, 0.00), (345.36, 66.80), 6.82
M 0.00000 3 (49.13, 209.55, 0.00), (369.12, 26.65), 2.71
M 0.00000 4 (389.42, 278.92, 0.00), (190.97, 399.68), 1.76
M 0.00000 5 (174.58, 13.72, 0.00), (327.60, 34.26), 7.94
M 0.00000 6 (379.59, 380.45, 0.00), (283.19, 280.04), 9.46
M 0.00000 7 (276.65, 98.17, 0.00), (296.73, 78.03), 7.00
M 0.00000 8 (226.52, 192.90, 0.00), (259.83, 7.83), 8.24
M 0.00000 9 (18.17, 191.52, 0.00), (151.09, 332.05), 9.14
M 0.00000 10 (27.86, 178.26, 0.00), (148.00, 205.76), 1.48
M 0.00000 11 (160.54, 231.16, 0.00), (245.62, 53.72), 8.34
M 0.00000 12 (348.15, 237.53, 0.00), (370.23, 267.05), 6.90
M 0.00000 13 (170.83, 75.75, 0.00), (67.54, 273.75), 2.99
M 0.00000 14 (72.54, 89.91, 0.00), (317.87, 83.09), 2.08
M 0.00000 15 (63.68, 164.05, 0.00), (374.14, 91.05), 4.73
M 0.00000 16 (101.88, 216.86, 0.00), (135.45, 197.47), 0.29
M 0.00000 17 (200.99, 344.60, 0.00), (113.53, 333.33), 1.13
M 0.00000 18 (8.33, 332.70, 0.00), (277.83, 228.86), 4.91
M 0.00000 19 (376.93, 288.94, 0.00), (131.54, 77.14), 3.27
s 2.556838879 _1_ AGT  --- 0 cbr 512 [0 0 0 0] ------- [1:0 2:0 32 0] [0] 0 1
r 2.556838879 _1_ RTR  --- 0 cbr 512 [0 0 0 0] ------- [1:0 2:0 32 0] [0] 0 1
s 2.556838879 _1_ RTR  --- 0 AODV 48 [0 0 0 0] ------- [1:255 -1:255 5 0] [0x2 1 1 [2 0] [1 4]] (REQUEST)
r 2.557827022 _2_ RTR  --- 0 AODV 48 [0 ffffffff 1 800] ------- [1:255 -1:255 5 0] [0x2 1 1 [2 0] [1 4]] (REQUEST)
s 2.557827022 _2_ RTR  --- 0 AODV 44 [0 0 0 0] ------- [2:255 1:255 30 1] [0x4 1 [2 4] 10.000000] (REPLY)
r 2.557827114 _7_ RTR  --- 0 AODV 48 [0 ffffffff 1 800] ------- [1:255 -1:255 5 0] [0x2 1 1 [2 0] [1 4]] (REQUEST)
r 2.557827323 _8_ RTR  --- 0 AODV 48 [0 ffffffff 1 800] ------- [1:255 -1:255 5 0] [0x2 1 1 [2 0] [1 4]] (REQUEST)
r 2.557827325 _12_ RTR  --- 0 AODV 48 [0 ffffffff 1 800] ------- [1:255 -1:255 5 0] [0x2 1 1 [2 0] [1 4]] (REQUEST)
r 2.557827434 _19_ RTR  --- 0 AODV 48 [0 ffffffff 1 800] ------- [1:255 -1:255 5 0] [0x2 1 1 [2 0] [1 4]] (REQUEST)
r 2.557827435 _4_ RTR  --- 0 AODV 48 [0 ffffffff 1 800] ------- [1:255 -1:255 5 0] [0x2 1 1 [2 0] [1 4]] (REQUEST)
r 2.557827503 _5_ RTR  --- 0 AODV 48 [0 ffffffff 1 800] ------- [1:255 -1:255 5 0] [0x2 1 1 [2 0] [1 4]] (REQUEST)
r 2.557827505 _13_ RTR  --- 0 AODV 48 [0 ffffffff 1 800] ------- [1:255 -1:255 5 0] [0x2 1 1 [2 0] [1 4]] (REQUEST)
r 2.557827562 _11_ RTR  --- 0 AODV 48 [0 ffffffff 1 800] ------- [1:255 -1:255 5 0] [0x2 1 1 [2 0] [1 4]] (REQUEST)
r 2.557827697 _6_ RTR  --- 0 AODV 48 [0 ffffffff 1 800] ------- [1:255 -1:255 5 0] [0x2 1 1 [2 0] [1 4]] (REQUEST)
s 2.558708341 _7_ RTR  --- 0 AODV 48 [0 ffffffff 1 800] ------- [7:255 -1:255 4 0] [0x2 2 1 [2 0] [1 4]] (REQUEST)
r 2.559816486 _2_ RTR  --- 0 AODV 48 [0 ffffffff 7 800] ------- [7:255 -1:255 4 0] [0x2 2 1 [2 0] [1 4]] (REQUEST)
r 2.559816576 _1_ RTR  --- 0 AODV 48 [0 ffffffff 7 800] ------- [7:255 -1:255 4 0] [0x2 2 1 [2 0] [1 4]] (REQUEST)
r 2.559816690 _8_ RTR  --- 0 AODV 48 [0 ffffffff 7 800] ------- [7:255 -1:255 4 0] [0x2 2 1 [2 0] [1 4]] (REQUEST)
r 2.559816731 _5_ RTR  --- 0 AODV 48 [0 ffffffff 7 800] ------- [7:255 -1:255 4 0] [0x2 2 1 [2 0] [1 4]] (REQUEST)
r 2.559816747 _13_ RTR  --- 0 AODV 48 [0 ffffffff 7 800] ------- [7:255 -1:255 4 0] [0x2 2 1 [2 0] [1 4]] (REQUEST)
r 2.559816920 _11_ RTR  --- 0 AODV 48 [0 ffffffff 7 800] ------- [7:255 -1:255 4 0] [0x2 2 1 [2 0] [1 4]] (REQUEST)
r 2.559816941 _12_ RTR  --- 0 AODV 48 [0 ffffffff 7 800] ------- [7:255 -1:255 4 0] [0x2 2 1 [2 0] [1 4]] (REQUEST)
r 2.559817045 _14_ RTR  --- 0 AODV 48 [0 ffffffff 7 800] ------- [7:255 -1:255 4 0] [0x2 2 1 [2 0] [1 4]] (REQUEST)
r 2.559817054 _19_ RTR  --- 0 AODV 48 [0 ffffffff 7 800] ------- [7:255 -1:255 4 0] [0x2 2 1 [2 0] [1 4]] (REQUEST)
r 2.559817068 _4_ RTR  --- 0 AODV 48 [0 ffffffff 7 800] ------- [7:255 -1:255 4 0] [0x2 2 1 [2 0] [1 4]] (REQUEST)
r 2.559817097 _15_ RTR  --- 0 AODV 48 [0 ffffffff 7 800] ------- [7:255 -1:255 4 0] [0x2 2 1 [2 0] [1 4]] (REQUEST)
r 2.559817101 _16_ RTR  --- 0 AODV 48 [0 ffffffff 7 800] ------- [7:255 -1:255 4 0] [0x2 2 1 [2 0] [1 4]] (REQUEST)
s 2.560173520 _5_ RTR  --- 0 AODV 48 [0 ffffffff 1 800] ------- [5:255 -1:255 4 0] [0x2 2 1 [2 0] [1 4]] (REQUEST)
s 2.560918353 _11_ RTR  --- 0 AODV 48 [0 ffffffff 1 800] ------- [11:255 -1:255 4 0] [0x2 2 1 [2 0] [1 4]] (REQUEST)
s 2.560957052 _19_ RTR  --- 0 AODV 48 [0 ffffffff 1 800] ------- [19:255 -1:255 4 0] [0x2 2 1 [2 0] [1 4]] (REQUEST)
s 2.561565154 _16_ RTR  --- 0 AODV 48 [0 ffffffff 7 800] ------- [16:255 -1:255 3 0] [0x2 3 1 [2 0] [1 4]] (REQUEST)
s 2.562239057 _8_ RTR  --- 0 AODV 48 [0 ffffffff 1 800] ------- [8:255 -1:255 4 0] [0x2 2 1 [2 0] [1 4]] (REQUEST)
r 2.563347437 _1_ RTR  --- 0 AODV 44 [13a 1 2 800] ------- [2:255 1:255 30 1] [0x4 1 [2 4] 10.000000] (REPLY)
s 2.563347437 _1_ RTR  --- 0 cbr 532 [0 0 0 0] ------- [1:0 2:0 30 2] [0] 0 1
s 2.564053664 _15_ RTR  --- 0 AODV 48 [0 ffffffff 7 800] ------- [15:255 -1:255 3 0] [0x2 3 1 [2 0] [1 4]] (REQUEST)
s 2.564216157 _13_ RTR  --- 0 AODV 48 [0 ffffffff 1 800] ------- [13:255 -1:255 4 0] [0x2 2 1 [2 0] [1 4]] (REQUEST)
r 2.564720043 _4_ RTR  --- 0 AODV 48 [0 ffffffff 13 800] ------- [19:255 -1:255 4 0] [0x2 2 1 [2 0] [1 4]] (REQUEST)
r 2.564720106 _12_ RTR  --- 0 AODV 48 [0 ffffffff 13 800] ------- [19:255 -1:255 4 0] [0x2 2 1 [2 0] [1 4]] (REQUEST)
r 2.564720259 _6_ RTR  --- 0 AODV 48 [0 ffffffff 13 800] ------- [19:255 -1:255 4 0] [0x2 2 1 [2 0] [1 4]] (REQUEST)
r 2.564720548 _1_ RTR  --- 0 AODV 48 [0 ffffffff 13 800] ------- [19:255 -1:255 4 0] [0x2 2 1 [2 0] [1 4]] (REQUEST)
r 2.564720561 _2_ RTR  --- 0 AODV 48 [0 ffffffff 13 800] ------- [19:255 -1:255 4 0] [0x2 2 1 [2 0] [1 4]] (REQUEST)
r 2.564720590 _8_ RTR  --- 0 AODV 48 [0 ffffffff 13 800] ------- [19:255 -1:255 4 0] [0x2 2 1 [2 0] [1 4]] (REQUEST)
r 2.564720602 _17_ RTR  --- 0 AODV 48 [0 ffffffff 13 800] ------- [19:255 -1:255 4 0] [0x2 2 1 [2 0] [1 4]] (REQUEST)
r 2.564720703 _11_ RTR  --- 0 AODV 48 [0 ffffffff 13 800] ------- [19:255 -1:255 4 0] [0x2 2 1 [2 0] [1 4]] (REQUEST)
r 2.564720706 _7_ RTR  --- 0 AODV 48 [0 ffffffff 13 800] ------- [19:255 -1:255 4 0] [0x2 2 1 [2 0] [1 4]] (REQUEST)
r 2.565698831 _11_ RTR  --- 0 AODV 48 [0 ffffffff 8 800] ------- [8:255 -1:255 4 0] [0x2 2 1 [2 0] [1 4]] (REQUEST)
r 2.565698898 _2_ RTR  --- 0 AODV 48 [0 ffffffff 8 800] ------- [8:255 -1:255 4 0] [0x2 2 1 [2 0] [1 4]] (REQUEST)
r 2.565698939 _7_ RTR  --- 0 AODV 48 [0 ffffffff 8 800] ------- [8:255 -1:255 4 0] [0x2 2 1 [2 0] [1 4]] (REQUEST)
r 2.565698955 _13_ RTR  --- 0 AODV 48 [0 ffffffff 8 800] ------- [8:255 -1:255 4 0] [0x2 2 1 [2 0] [1 4]] (REQUEST)
r 2.565699034 _1_ RTR  --- 0 AODV 48 [0 ffffffff 8 800] ------- [8:255 -1:255 4 0] [0x2 2 1 [2 0] [1 4]] (REQUEST)
r 2.565699040 _16_ RTR  --- 0 AODV 48 [0 ffffffff 8 800] ------- [8:255 -1:255 4 0] [0x2 2 1 [2 0] [1 4]] (REQUEST)
r 2.565699094 _12_ RTR  --- 0 AODV 48 [0 ffffffff 8 800] ------- [8:255 -1:255 4 0] [0x2 2 1 [2 0] [1 4]] (REQUEST)
r 2.565699107 _15_ RTR  --- 0 AODV 48 [0 ffffffff 8 800] ------- [8:255 -1:255 4 0] [0x2 2 1 [2 0] [1 4]] (REQUEST)
r 2.565699122 _5_ RTR  --- 0 AODV 48 [0 ffffffff 8 800] ------- [8:255 -1:255 4 0] [0x2 2 1 [2 0] [1 4]] (REQUEST)
r 2.565699167 _14_ RTR  --- 0 AODV 48 [0 ffffffff 8 800] ------- [8:255 -1:255 4 0] [0x2 2 1 [2 0] [1 4]] (REQUEST)
r 2.565699173 _17_ RTR  --- 0 AODV 48 [0 ffffffff 8 800] ------- [8:255 -1:255 4 0] [0x2 2 1 [2 0] [1 4]] (REQUEST)
r 2.565699184 _3_ RTR  --- 0 AODV 48 [0 ffffffff 8 800] ------- [8:255 -1:255 4 0] [0x2 2 1 [2 0] [1 4]] (REQUEST)
r 2.565699187 _19_ RTR  --- 0 AODV 48 [0 ffffffff 8 800] ------- [8:255 -1:255 4 0] [0x2 2 1 [2 0] [1 4]] (REQUEST)
r 2.565699222 _4_ RTR  --- 0 AODV 48 [0 ffffffff 8 800] ------- [8:255 -1:255 4 0] [0x2 2 1 [2 0] [1 4]] (REQUEST)
r 2.565699252 _10_ RTR  --- 0 AODV 48 [0 ffffffff 8 800] ------- [8:255 -1:255 4 0] [0x2 2 1 [2 0] [1 4]] (REQUEST)
r 2.565699254 _9_ RTR  --- 0 AODV 48 [0 ffffffff 8 800] ------- [8:255 -1:255 4 0] [0x2 2 1 [2 0] [1 4]] (REQUEST)
r 2.565699364 _6_ RTR  --- 0 AODV 48 [0 ffffffff 8 800] ------- [8:255 -1:255 4 0] [0x2 2 1 [2 0] [1 4]] (REQUEST)
r 2.565699394 _0_ RTR  --- 0 AODV 48 [0 ffffffff 8 800] ------- [8:255 -1:255 4 0] [0x2 2 1 [2 0] [1 4]] (REQUEST)
s 2.565818880 _12_ RTR  --- 0 AODV 48 [0 ffffffff 1 800] ------- [12:255 -1:255 4 0] [0x2 2 1 [2 0] [1 4]] (REQUEST)
s 2.565992195 _4_ RTR  --- 0 AODV 48 [0 ffffffff 1 800] ------- [4:255 -1:255 4 0] [0x2 2 1 [2 0] [1 4]] (REQUEST)
s 2.566190932 _6_ RTR  --- 0 AODV 48 [0 ffffffff 1 800] ------- [6:255 -1:255 4 0] [0x2 2 1 [2 0] [1 4]] (REQUEST)
r 2.566657056 _16_ RTR  --- 0 AODV 48 [0 ffffffff b 800] ------- [11:255 -1:255 4 0] [0x2 2 1 [2 0] [1 4]] (REQUEST)
r 2.566657072 _8_ RTR  --- 0 AODV 48 [0 ffffffff b 800] ------- [11:255 -1:255 4 0] [0x2 2 1 [2 0] [1 4]] (REQUEST)
r 2.566657188 _15_ RTR  --- 0 AODV 48 [0 ffffffff b 800] ------- [11:255 -1:255 4 0] [0x2 2 1 [2 0] [1 4]] (REQUEST)
r 2.566657213 _3_ RTR  --- 0 AODV 48 [0 ffffffff b 800] ------- [11:255 -1:255 4 0] [0x2 2 1 [2 0] [1 4]] (REQUEST)
r 2.566657262 _13_ RTR  --- 0 AODV 48 [0 ffffffff b 800] ------- [11:255 -1:255 4 0] [0x2 2 1 [2 0] [1 4]] (REQUEST)
r 2.566657282 _17_ RTR  --- 0 AODV 48 [0 ffffffff b 800] ------- [11:255 -1:255 4 0] [0x2 2 1 [2 0] [1 4]] (REQUEST)
r 2.566657283 _9_ RTR  --- 0 AODV 48 [0 ffffffff b 800] ------- [11:255 -1:255 4 0] [0x2 2 1 [2 0] [1 4]] (REQUEST)
r 2.566657304 _10_ RTR  --- 0 AODV 48 [0 ffffffff b 800] ------- [11:255 -1:255 4 0] [0x2 2 1 [2 0] [1 4]] (REQUEST)
r 2.566657340 _14_ RTR  --- 0 AODV 48 [0 ffffffff b 800] ------- [11:255 -1:255 4 0] [0x2 2 1 [2 0] [1 4]] (REQUEST)
r 2.566657380 _2_ RTR  --- 0 AODV 48 [0 ffffffff b 800] ------- [11:255 -1:255 4 0] [0x2 2 1 [2 0] [1 4]] (REQUEST)
r 2.566657396 _0_ RTR  --- 0 AODV 48 [0 ffffffff b 800] ------- [11:255 -1:255 4 0] [0x2 2 1 [2 0] [1 4]] (REQUEST)
r 2.566657411 _7_ RTR  --- 0 AODV 48 [0 ffffffff b 800] ------- [11:255 -1:255 4 0] [0x2 2 1 [2 0] [1 4]] (REQUEST)
r 2.566657463 _18_ RTR  --- 0 AODV 48 [0 ffffffff b 800] ------- [11:255 -1:255 4 0] [0x2 2 1 [2 0] [1 4]] (REQUEST)
r 2.566657475 _12_ RTR  --- 0 AODV 48 [0 ffffffff b 800] ------- [11:255 -1:255 4 0] [0x2 2 1 [2 0] [1 4]] (REQUEST)
r 2.566657488 _5_ RTR  --- 0 AODV 48 [0 ffffffff b 800] ------- [11:255 -1:255 4 0] [0x2 2 1 [2 0] [1 4]] (REQUEST)
r 2.566657514 _1_ RTR  --- 0 AODV 48 [0 ffffffff b 800] ------- [11:255 -1:255 4 0] [0x2 2 1 [2 0] [1 4]] (REQUEST)
r 2.566657542 _19_ RTR  --- 0 AODV 48 [0 ffffffff b 800] ------- [11:255 -1:255 4 0] [0x2 2 1 [2 0] [1 4]] (REQUEST)
r 2.566657586 _4_ RTR  --- 0 AODV 48 [0 ffffffff b 800] ------- [11:255 -1:255 4 0] [0x2 2 1 [2 0] [1 4]] (REQUEST)
r 2.566657648 _6_ RTR  --- 0 AODV 48 [0 ffffffff b 800] ------- [11:255 -1:255 4 0] [0x2 2 1 [2 0] [1 4]] (REQUEST)
s 2.567132858 _17_ RTR  --- 0 AODV 48 [0 ffffffff 13 800] ------- [17:255 -1:255 3 0] [0x2 3 1 [2 0] [1 4]] (REQUEST)
r 2.567655726 _13_ RTR  --- 0 AODV 48 [0 ffffffff 5 800] ------- [5:255 -1:255 4 0] [0x2 2 1 [2 0] [1 4]] (REQUEST)
r 2.567655878 _7_ RTR  --- 0 AODV 48 [0 ffffffff 5 800] ------- [5:255 -1:255 4 0] [0x2 2 1 [2 0] [1 4]] (REQUEST)
r 2.567655914 _19_ RTR  --- 0 AODV 48 [0 ffffffff 6 800] ------- [6:255 -1:255 4 0] [0x2 2 1 [2 0] [1 4]] (REQUEST)
r 2.567655931 _4_ RTR  --- 0 AODV 48 [0 ffffffff 6 800] ------- [6:255 -1:255 4 0] [0x2 2 1 [2 0] [1 4]] (REQUEST)
r 2.567655948 _14_ RTR  --- 0 AODV 48 [0 ffffffff 5 800] ------- [5:255 -1:255 4 0] [0x2 2 1 [2 0] [1 4]] (REQUEST)
r 2.567656019 _12_ RTR  --- 0 AODV 48 [0 ffffffff 6 800] ------- [6:255 -1:255 4 0] [0x2 2 1 [2 0] [1 4]] (REQUEST)
r 2.567656113 _15_ RTR  --- 0 AODV 48 [0 ffffffff 5 800] ------- [5:255 -1:255 4 0] [0x2 2 1 [2 0] [1 4]] (REQUEST)
r 2.567656200 _17_ RTR  --- 0 AODV 48 [0 ffffffff 6 800] ------- [6:255 -1:255 4 0] [0x2 2 1 [2 0] [1 4]] (REQUEST)
s 2.568414322 _14_ RTR  --- 0 AODV 48 [0 ffffffff 7 800] ------- [14:255 -1:255 3 0] [0x2 3 1 [2 0] [1 4]] (REQUEST)
s 2.569754585 _0_ RTR  --- 0 AODV 48 [0 ffffffff 8 800] ------- [0:255 -1:255 3 0] [0x2 3 1 [2 0] [1 4]] (REQUEST)
s 2.572472674 _3_ RTR  --- 0 AODV 48 [0 ffffffff 8 800] ------- [3:255 -1:255 3 0] [0x2 3 1 [2 0] [1 4]] (REQUEST)
s 2.573321571 _10_ RTR  --- 0 AODV 48 [0 ffffffff 8 800] ------- [10:255 -1:255 3 0] [0x2 3 1 [2 0] [1 4]] (REQUEST)
r 2.573506896 _2_ AGT  --- 0 cbr 532 [13a 2 1 800] ------- [1:0 2:0 30 2] [0] 1 1
s 2.574748709 _9_ RTR  --- 0 AODV 48 [0 ffffffff 8 800] ------- [9:255 -1:255 3 0] [0x2 3 1 [2 0] [1 4]] (REQUEST)
r 2.574779528 _19_ RTR  --- 0 AODV 48 [0 ffffffff 4 800] ------- [4:255 -1:255 4 0] [0x2 2 1 [2 0] [1 4]] (REQUEST)
r 2.574779610 _12_ RTR  --- 0 AODV 48 [0 ffffffff 4 800] ------- [4:255 -1:255 4 0] [0x2 2 1 [2 0] [1 4]] (REQUEST)
r 2.574779760 _6_ RTR  --- 0 AODV 48 [0 ffffffff 4 800] ------- [4:255 -1:255 4 0] [0x2 2 1 [2 0] [1 4]] (REQUEST)
r 2.574780034 _1_ RTR  --- 0 AODV 48 [0 ffffffff 4 800] ------- [4:255 -1:255 4 0] [0x2 2 1 [2 0] [1 4]] (REQUEST)
r 2.574780060 _2_ RTR  --- 0 AODV 48 [0 ffffffff 4 800] ------- [4:255 -1:255 4 0] [0x2 2 1 [2 0] [1 4]] (REQUEST)
r 2.574780111 _8_ RTR  --- 0 AODV 48 [0 ffffffff 4 800] ------- [4:255 -1:255 4 0] [0x2 2 1 [2 0] [1 4]] (REQUEST)
r 2.574780137 _17_ RTR  --- 0 AODV 48 [0 ffffffff 4 800] ------- [4:255 -1:255 4 0] [0x2 2 1 [2 0] [1 4]] (REQUEST)
r 2.574780205 _7_ RTR  --- 0 AODV 48 [0 ffffffff 4 800] ------- [4:255 -1:255 4 0] [0x2 2 1 [2 0] [1 4]] (REQUEST)
r 2.574780233 _11_ RTR  --- 0 AODV 48 [0 ffffffff 4 800] ------- [4:255 -1:255 4 0] [0x2 2 1 [2 0] [1 4]] (REQUEST)
r 2.575757723 _19_ RTR  --- 0 AODV 48 [0 ffffffff c 800] ------- [12:255 -1:255 4 0] [0x2 2 1 [2 0] [1 4]] (REQUEST)
r 2.575757743 _4_ RTR  --- 0 AODV 48 [0 ffffffff c 800] ------- [12:255 -1:255 4 0] [0x2 2 1 [2 0] [1 4]] (REQUEST)
r 2.575757981 _6_ RTR  --- 0 AODV 48 [0 ffffffff c 800] ------- [12:255 -1:255 4 0] [0x2 2 1 [2 0] [1 4]] (REQUEST)
r 2.575758057 _1_ RTR  --- 0 AODV 48 [0 ffffffff c 800] ------- [12:255 -1:255 4 0] [0x2 2 1 [2 0] [1 4]] (REQUEST)
r 2.575758067 _2_ RTR  --- 0 AODV 48 [0 ffffffff c 800] ------- [12:255 -1:255 4 0] [0x2 2 1 [2 0] [1 4]] (REQUEST)
r 2.575758115 _8_ RTR  --- 0 AODV 48 [0 ffffffff c 800] ------- [12:255 -1:255 4 0] [0x2 2 1 [2 0] [1 4]] (REQUEST)
r 2.575758211 _7_ RTR  --- 0 AODV 48 [0 ffffffff c 800] ------- [12:255 -1:255 4 0] [0x2 2 1 [2 0] [1 4]] (REQUEST)
r 2.575758228 _17_ RTR  --- 0 AODV 48 [0 ffffffff c 800] ------- [12:255 -1:255 4 0] [0x2 2 1 [2 0] [1 4]] (REQUEST)
r 2.575758254 _11_ RTR  --- 0 AODV 48 [0 ffffffff c 800] ------- [12:255 -1:255 4 0] [0x2 2 1 [2 0] [1 4]] (REQUEST)
s 2.576120112 _18_ RTR  --- 0 AODV 48 [0 ffffffff b 800] ------- [18:255 -1:255 3 0] [0x2 3 1 [2 0] [1 4]] (REQUEST)
r 2.576736680 _11_ RTR  --- 0 AODV 48 [0 ffffffff 11 800] ------- [17:255 -1:255 3 0] [0x2 3 1 [2 0] [1 4]] (REQUEST)
r 2.576736760 _16_ RTR  --- 0 AODV 48 [0 ffffffff 11 800] ------- [17:255 -1:255 3 0] [0x2 3 1 [2 0] [1 4]] (REQUEST)
r 2.576736781 _6_ RTR  --- 0 AODV 48 [0 ffffffff 11 800] ------- [17:255 -1:255 3 0] [0x2 3 1 [2 0] [1 4]] (REQUEST)
r 2.576736812 _8_ RTR  --- 0 AODV 48 [0 ffffffff 11 800] ------- [17:255 -1:255 3 0] [0x2 3 1 [2 0] [1 4]] (REQUEST)
r 2.576736824 _18_ RTR  --- 0 AODV 48 [0 ffffffff 11 800] ------- [17:255 -1:255 3 0] [0x2 3 1 [2 0] [1 4]] (REQUEST)
r 2.576736838 _19_ RTR  --- 0 AODV 48 [0 ffffffff 11 800] ------- [17:255 -1:255 3 0] [0x2 3 1 [2 0] [1 4]] (REQUEST)
r 2.576736847 _12_ RTR  --- 0 AODV 48 [0 ffffffff 11 800] ------- [17:255 -1:255 3 0] [0x2 3 1 [2 0] [1 4]] (REQUEST)
r 2.576736868 _0_ RTR  --- 0 AODV 48 [0 ffffffff 11 800] ------- [17:255 -1:255 3 0] [0x2 3 1 [2 0] [1 4]] (REQUEST)
r 2.576736888 _4_ RTR  --- 0 AODV 48 [0 ffffffff 11 800] ------- [17:255 -1:255 3 0] [0x2 3 1 [2 0] [1 4]] (REQUEST)
r 2.576736891 _3_ RTR  --- 0 AODV 48 [0 ffffffff 11 800] ------- [17:255 -1:255 3 0] [0x2 3 1 [2 0] [1 4]] (REQUEST)
r 2.576736937 _9_ RTR  --- 0 AODV 48 [0 ffffffff 11 800] ------- [17:255 -1:255 3 0] [0x2 3 1 [2 0] [1 4]] (REQUEST)
r 2.576736963 _15_ RTR  --- 0 AODV 48 [0 ffffffff 11 800] ------- [17:255 -1:255 3 0] [0x2 3 1 [2 0] [1 4]] (REQUEST)
r 2.576737010 _10_ RTR  --- 0 AODV 48 [0 ffffffff 11 800] ------- [17:255 -1:255 3 0] [0x2 3 1 [2 0] [1 4]] (REQUEST)
r 2.576737051 _2_ RTR  --- 0 AODV 48 [0 ffffffff 11 800] ------- [17:255 -1:255 3 0] [0x2 3 1 [2 0] [1 4]] (REQUEST)
r 2.577654922 _3_ RTR  --- 0 AODV 48 [0 ffffffff 10 800] ------- [16:255 -1:255 3 0] [0x2 3 1 [2 0] [1 4]] (REQUEST)
r 2.577654965 _15_ RTR  --- 0 AODV 48 [0 ffffffff 10 800] ------- [16:255 -1:255 3 0] [0x2 3 1 [2 0] [1 4]] (REQUEST)
r 2.577654985 _11_ RTR  --- 0 AODV 48 [0 ffffffff 10 800] ------- [16:255 -1:255 3 0] [0x2 3 1 [2 0] [1 4]] (REQUEST)
r 2.577654989 _9_ RTR  --- 0 AODV 48 [0 ffffffff 10 800] ------- [16:255 -1:255 3 0] [0x2 3 1 [2 0] [1 4]] (REQUEST)
r 2.577655028 _10_ RTR  --- 0 AODV 48 [0 ffffffff 10 800] ------- [16:255 -1:255 3 0] [0x2 3 1 [2 0] [1 4]] (REQUEST)
r 2.577655125 _0_ RTR  --- 0 AODV 48 [0 ffffffff 10 800] ------- [16:255 -1:255 3 0] [0x2 3 1 [2 0] [1 4]] (REQUEST)
r 2.577655191 _14_ RTR  --- 0 AODV 48 [0 ffffffff 10 800] ------- [16:255 -1:255 3 0] [0x2 3 1 [2 0] [1 4]] (REQUEST)
r 2.577655211 _8_ RTR  --- 0 AODV 48 [0 ffffffff 10 800] ------- [16:255 -1:255 3 0] [0x2 3 1 [2 0] [1 4]] (REQUEST)
r 2.577655223 _18_ RTR  --- 0 AODV 48 [0 ffffffff 10 800] ------- [16:255 -1:255 3 0] [0x2 3 1 [2 0] [1 4]] (REQUEST)
r 2.577655256 _13_ RTR  --- 0 AODV 48 [0 ffffffff 10 800] ------- [16:255 -1:255 3 0] [0x2 3 1 [2 0] [1 4]] (REQUEST)
r 2.577655292 _17_ RTR  --- 0 AODV 48 [0 ffffffff 10 800] ------- [16:255 -1:255 3 0] [0x2 3 1 [2 0] [1 4]] (REQUEST)
r 2.577655495 _5_ RTR  --- 0 AODV 48 [0 ffffffff 10 800] ------- [16:255 -1:255 3 0] [0x2 3 1 [2 0] [1 4]] (REQUEST)
r 2.577655515 _2_ RTR  --- 0 AODV 48 [0 ffffffff 10 800] ------- [16:255 -1:255 3 0] [0x2 3 1 [2 0] [1 4]] (REQUEST)
r 2.577655521 _7_ RTR  --- 0 AODV 48 [0 ffffffff 10 800] ------- [16:255 -1:255 3 0] [0x2 3 1 [2 0] [1 4]] (REQUEST)
r 2.578673429 _15_ RTR  --- 0 AODV 48 [0 ffffffff e 800] ------- [14:255 -1:255 3 0] [0x2 3 1 [2 0] [1 4]] (REQUEST)
r 2.578673489 _13_ RTR  --- 0 AODV 48 [0 ffffffff e 800] ------- [14:255 -1:255 3 0] [0x2 3 1 [2 0] [1 4]] (REQUEST)
r 2.578673526 _10_ RTR  --- 0 AODV 48 [0 ffffffff e 800] ------- [14:255 -1:255 3 0] [0x2 3 1 [2 0] [1 4]] (REQUEST)
r 2.578673586 _3_ RTR  --- 0 AODV 48 [0 ffffffff e 800] ------- [14:255 -1:255 3 0] [0x2 3 1 [2 0] [1 4]] (REQUEST)
r 2.578673613 _9_ RTR  --- 0 AODV 48 [0 ffffffff e 800] ------- [14:255 -1:255 3 0] [0x2 3 1 [2 0] [1 4]] (REQUEST)
r 2.578673621 _16_ RTR  --- 0 AODV 48 [0 ffffffff e 800] ------- [14:255 -1:255 3 0] [0x2 3 1 [2 0] [1 4]] (REQUEST)
r 2.578673651 _5_ RTR  --- 0 AODV 48 [0 ffffffff e 800] ------- [14:255 -1:255 3 0] [0x2 3 1 [2 0] [1 4]] (REQUEST)
r 2.578673700 _11_ RTR  --- 0 AODV 48 [0 ffffffff e 800] ------- [14:255 -1:255 3 0] [0x2 3 1 [2 0] [1 4]] (REQUEST)
r 2.578673768 _8_ RTR  --- 0 AODV 48 [0 ffffffff e 800] ------- [14:255 -1:255 3 0] [0x2 3 1 [2 0] [1 4]] (REQUEST)
r 2.578673869 _0_ RTR  --- 0 AODV 48 [0 ffffffff e 800] ------- [14:255 -1:255 3 0] [0x2 3 1 [2 0] [1 4]] (REQUEST)
r 2.578673896 _7_ RTR  --- 0 AODV 48 [0 ffffffff e 800] ------- [14:255 -1:255 3 0] [0x2 3 1 [2 0] [1 4]] (REQUEST)
r 2.578673971 _2_ RTR  --- 0 AODV 48 [0 ffffffff e 800] ------- [14:255 -1:255 3 0] [0x2 3 1 [2 0] [1 4]] (REQUEST)
r 2.578674008 _18_ RTR  --- 0 AODV 48 [0 ffffffff e 800] ------- [14:255 -1:255 3 0] [0x2 3 1 [2 0] [1 4]] (REQUEST)
r 2.579591728 _5_ RTR  --- 0 AODV 48 [0 ffffffff d 800] ------- [13:255 -1:255 4 0] [0x2 2 1 [2 0] [1 4]] (REQUEST)
r 2.579591788 _14_ RTR  --- 0 AODV 48 [0 ffffffff d 800] ------- [13:255 -1:255 4 0] [0x2 2 1 [2 0] [1 4]] (REQUEST)
r 2.579591854 _8_ RTR  --- 0 AODV 48 [0 ffffffff d 800] ------- [13:255 -1:255 4 0] [0x2 2 1 [2 0] [1 4]] (REQUEST)
r 2.579591892 _15_ RTR  --- 0 AODV 48 [0 ffffffff d 800] ------- [13:255 -1:255 4 0] [0x2 2 1 [2 0] [1 4]] (REQUEST)
r 2.579591897 _7_ RTR  --- 0 AODV 48 [0 ffffffff d 800] ------- [13:255 -1:255 4 0] [0x2 2 1 [2 0] [1 4]] (REQUEST)
r 2.579591920 _11_ RTR  --- 0 AODV 48 [0 ffffffff d 800] ------- [13:255 -1:255 4 0] [0x2 2 1 [2 0] [1 4]] (REQUEST)
r 2.579591983 _2_ RTR  --- 0 AODV 48 [0 ffffffff d 800] ------- [13:255 -1:255 4 0] [0x2 2 1 [2 0] [1 4]] (REQUEST)
r 2.579591985 _16_ RTR  --- 0 AODV 48 [0 ffffffff d 800] ------- [13:255 -1:255 4 0] [0x2 2 1 [2 0] [1 4]] (REQUEST)
r 2.579592045 _10_ RTR  --- 0 AODV 48 [0 ffffffff d 800] ------- [13:255 -1:255 4 0] [0x2 2 1 [2 0] [1 4]] (REQUEST)
r 2.579592045 _3_ RTR  --- 0 AODV 48 [0 ffffffff d 800] ------- [13:255 -1:255 4 0] [0x2 2 1 [2 0] [1 4]] (REQUEST)
r 2.579592100 _9_ RTR  --- 0 AODV 48 [0 ffffffff d 800] ------- [13:255 -1:255 4 0] [0x2 2 1 [2 0] [1 4]] (REQUEST)
r 2.579592116 _1_ RTR  --- 0 AODV 48 [0 ffffffff d 800] ------- [13:255 -1:255 4 0] [0x2 2 1 [2 0] [1 4]] (REQUEST)
r 2.580610143 _9_ RTR  --- 0 AODV 48 [0 ffffffff a 800] ------- [10:255 -1:255 3 0] [0x2 3 1 [2 0] [1 4]] (REQUEST)
r 2.580610164 _3_ RTR  --- 0 AODV 48 [0 ffffffff a 800] ------- [10:255 -1:255 3 0] [0x2 3 1 [2 0] [1 4]] (REQUEST)
r 2.580610203 _15_ RTR  --- 0 AODV 48 [0 ffffffff a 800] ------- [10:255 -1:255 3 0] [0x2 3 1 [2 0] [1 4]] (REQUEST)
r 2.580610312 _16_ RTR  --- 0 AODV 48 [0 ffffffff a 800] ------- [10:255 -1:255 3 0] [0x2 3 1 [2 0] [1 4]] (REQUEST)
r 2.580610380 _14_ RTR  --- 0 AODV 48 [0 ffffffff a 800] ------- [10:255 -1:255 3 0] [0x2 3 1 [2 0] [1 4]] (REQUEST)
r 2.580610397 _0_ RTR  --- 0 AODV 48 [0 ffffffff a 800] ------- [10:255 -1:255 3 0] [0x2 3 1 [2 0] [1 4]] (REQUEST)
r 2.580610518 _11_ RTR  --- 0 AODV 48 [0 ffffffff a 800] ------- [10:255 -1:255 3 0] [0x2 3 1 [2 0] [1 4]] (REQUEST)
r 2.580610543 _18_ RTR  --- 0 AODV 48 [0 ffffffff a 800] ------- [10:255 -1:255 3 0] [0x2 3 1 [2 0] [1 4]] (REQUEST)
r 2.580610600 _13_ RTR  --- 0 AODV 48 [0 ffffffff a 800] ------- [10:255 -1:255 3 0] [0x2 3 1 [2 0] [1 4]] (REQUEST)
r 2.580610707 _8_ RTR  --- 0 AODV 48 [0 ffffffff a 800] ------- [10:255 -1:255 3 0] [0x2 3 1 [2 0] [1 4]] (REQUEST)
r 2.580610813 _5_ RTR  --- 0 AODV 48 [0 ffffffff a 800] ------- [10:255 -1:255 3 0] [0x2 3 1 [2 0] [1 4]] (REQUEST)
r 2.580610826 _17_ RTR  --- 0 AODV 48 [0 ffffffff a 800] ------- [10:255 -1:255 3 0] [0x2 3 1 [2 0] [1 4]] (REQUEST)
r 2.581568692 _0_ RTR  --- 0 AODV 48 [0 ffffffff 12 800] ------- [18:255 -1:255 3 0] [0x2 3 1 [2 0] [1 4]] (REQUEST)
r 2.581568944 _9_ RTR  --- 0 AODV 48 [0 ffffffff 12 800] ------- [18:255 -1:255 3 0] [0x2 3 1 [2 0] [1 4]] (REQUEST)
r 2.581568966 _3_ RTR  --- 0 AODV 48 [0 ffffffff 12 800] ------- [18:255 -1:255 3 0] [0x2 3 1 [2 0] [1 4]] (REQUEST)
r 2.581569005 _16_ RTR  --- 0 AODV 48 [0 ffffffff 12 800] ------- [18:255 -1:255 3 0] [0x2 3 1 [2 0] [1 4]] (REQUEST)
r 2.581569041 _10_ RTR  --- 0 AODV 48 [0 ffffffff 12 800] ------- [18:255 -1:255 3 0] [0x2 3 1 [2 0] [1 4]] (REQUEST)
r 2.581569129 _15_ RTR  --- 0 AODV 48 [0 ffffffff 12 800] ------- [18:255 -1:255 3 0] [0x2 3 1 [2 0] [1 4]] (REQUEST)
r 2.581569138 _17_ RTR  --- 0 AODV 48 [0 ffffffff 12 800] ------- [18:255 -1:255 3 0] [0x2 3 1 [2 0] [1 4]] (REQUEST)
r 2.581569175 _11_ RTR  --- 0 AODV 48 [0 ffffffff 12 800] ------- [18:255 -1:255 3 0] [0x2 3 1 [2 0] [1 4]] (REQUEST)
r 2.581569360 _14_ RTR  --- 0 AODV 48 [0 ffffffff 12 800] ------- [18:255 -1:255 3 0] [0x2 3 1 [2 0] [1 4]] (REQUEST)
r 2.582507287 _10_ RTR  --- 0 AODV 48 [0 ffffffff f 800] ------- [15:255 -1:255 3 0] [0x2 3 1 [2 0] [1 4]] (REQUEST)
r 2.582507293 _3_ RTR  --- 0 AODV 48 [0 ffffffff f 800] ------- [15:255 -1:255 3 0] [0x2 3 1 [2 0] [1 4]] (REQUEST)
r 2.582507334 _16_ RTR  --- 0 AODV 48 [0 ffffffff f 800] ------- [15:255 -1:255 3 0] [0x2 3 1 [2 0] [1 4]] (REQUEST)
r 2.582507338 _9_ RTR  --- 0 AODV 48 [0 ffffffff f 800] ------- [15:255 -1:255 3 0] [0x2 3 1 [2 0] [1 4]] (REQUEST)
r 2.582507367 _14_ RTR  --- 0 AODV 48 [0 ffffffff f 800] ------- [15:255 -1:255 3 0] [0x2 3 1 [2 0] [1 4]] (REQUEST)
r 2.582507485 _11_ RTR  --- 0 AODV 48 [0 ffffffff f 800] ------- [15:255 -1:255 3 0] [0x2 3 1 [2 0] [1 4]] (REQUEST)
r 2.582507532 _13_ RTR  --- 0 AODV 48 [0 ffffffff f 800] ------- [15:255 -1:255 3 0] [0x2 3 1 [2 0] [1 4]] (REQUEST)
r 2.582507582 _0_ RTR  --- 0 AODV 48 [0 ffffffff f 800] ------- [15:255 -1:255 3 0] [0x2 3 1 [2 0] [1 4]] (REQUEST)
r 2.582507646 _8_ RTR  --- 0 AODV 48 [0 ffffffff f 800] ------- [15:255 -1:255 3 0] [0x2 3 1 [2 0] [1 4]] (REQUEST)
r 2.582507715 _18_ RTR  --- 0 AODV 48 [0 ffffffff f 800] ------- [15:255 -1:255 3 0] [0x2 3 1 [2 0] [1 4]] (REQUEST)
r 2.582507754 _5_ RTR  --- 0 AODV 48 [0 ffffffff f 800] ------- [15:255 -1:255 3 0] [0x2 3 1 [2 0] [1 4]] (REQUEST)
r 2.582507863 _17_ RTR  --- 0 AODV 48 [0 ffffffff f 800] ------- [15:255 -1:255 3 0] [0x2 3 1 [2 0] [1 4]] (REQUEST)
r 2.582507885 _7_ RTR  --- 0 AODV 48 [0 ffffffff f 800] ------- [15:255 -1:255 3 0] [0x2 3 1 [2 0] [1 4]] (REQUEST)
r 2.582507918 _2_ RTR  --- 0 AODV 48 [0 ffffffff f 800] ------- [15:255 -1:255 3 0] [0x2 3 1 [2 0] [1 4]] (REQUEST)
r 2.583485731 _18_ RTR  --- 0 AODV 48 [0 ffffffff 0 800] ------- [0:255 -1:255 3 0] [0x2 3 1 [2 0] [1 4]] (REQUEST)
r 2.583485839 _9_ RTR  --- 0 AODV 48 [0 ffffffff 0 800] ------- [0:255 -1:255 3 0] [0x2 3 1 [2 0] [1 4]] (REQUEST)
r 2.583485871 _3_ RTR  --- 0 AODV 48 [0 ffffffff 0 800] ------- [0:255 -1:255 3 0] [0x2 3 1 [2 0] [1 4]] (REQUEST)
r 2.583485934 _10_ RTR  --- 0 AODV 48 [0 ffffffff 0 800] ------- [0:255 -1:255 3 0] [0x2 3 1 [2 0] [1 4]] (REQUEST)
r 2.583485947 _16_ RTR  --- 0 AODV 48 [0 ffffffff 0 800] ------- [0:255 -1:255 3 0] [0x2 3 1 [2 0] [1 4]] (REQUEST)
r 2.583486035 _15_ RTR  --- 0 AODV 48 [0 ffffffff 0 800] ------- [0:255 -1:255 3 0] [0x2 3 1 [2 0] [1 4]] (REQUEST)
r 2.583486148 _11_ RTR  --- 0 AODV 48 [0 ffffffff 0 800] ------- [0:255 -1:255 3 0] [0x2 3 1 [2 0] [1 4]] (REQUEST)
r 2.583486221 _17_ RTR  --- 0 AODV 48 [0 ffffffff 0 800] ------- [0:255 -1:255 3 0] [0x2 3 1 [2 0] [1 4]] (REQUEST)
r 2.583486260 _14_ RTR  --- 0 AODV 48 [0 ffffffff 0 800] ------- [0:255 -1:255 3 0] [0x2 3 1 [2 0] [1 4]] (REQUEST)
r 2.583486387 _8_ RTR  --- 0 AODV 48 [0 ffffffff 0 800] ------- [0:255 -1:255 3 0] [0x2 3 1 [2 0] [1 4]] (REQUEST)
r 2.584403909 _3_ RTR  --- 0 AODV 48 [0 ffffffff 9 800] ------- [9:255 -1:255 3 0] [0x2 3 1 [2 0] [1 4]] (REQUEST)
r 2.584403938 _10_ RTR  --- 0 AODV 48 [0 ffffffff 9 800] ------- [9:255 -1:255 3 0] [0x2 3 1 [2 0] [1 4]] (REQUEST)
r 2.584404048 _15_ RTR  --- 0 AODV 48 [0 ffffffff 9 800] ------- [9:255 -1:255 3 0] [0x2 3 1 [2 0] [1 4]] (REQUEST)
r 2.584404068 _16_ RTR  --- 0 AODV 48 [0 ffffffff 9 800] ------- [9:255 -1:255 3 0] [0x2 3 1 [2 0] [1 4]] (REQUEST)
r 2.584404096 _0_ RTR  --- 0 AODV 48 [0 ffffffff 9 800] ------- [9:255 -1:255 3 0] [0x2 3 1 [2 0] [1 4]] (REQUEST)
r 2.584404240 _18_ RTR  --- 0 AODV 48 [0 ffffffff 9 800] ------- [9:255 -1:255 3 0] [0x2 3 1 [2 0] [1 4]] (REQUEST)
r 2.584404261 _14_ RTR  --- 0 AODV 48 [0 ffffffff 9 800] ------- [9:255 -1:255 3 0] [0x2 3 1 [2 0] [1 4]] (REQUEST)
r 2.584404291 _11_ RTR  --- 0 AODV 48 [0 ffffffff 9 800] ------- [9:255 -1:255 3 0] [0x2 3 1 [2 0] [1 4]] (REQUEST)
r 2.584404450 _13_ RTR  --- 0 AODV 48 [0 ffffffff 9 800] ------- [9:255 -1:255 3 0] [0x2 3 1 [2 0] [1 4]] (REQUEST)
r 2.584404503 _8_ RTR  --- 0 AODV 48 [0 ffffffff 9 800] ------- [9:255 -1:255 3 0] [0x2 3 1 [2 0] [1 4]] (REQUEST)
r 2.584404547 _17_ RTR  --- 0 AODV 48 [0 ffffffff 9 800] ------- [9:255 -1:255 3 0] [0x2 3 1 [2 0] [1 4]] (REQUEST)
r 2.585321979 _9_ RTR  --- 0 AODV 48 [0 ffffffff 3 800] ------- [3:255 -1:255 3 0] [0x2 3 1 [2 0] [1 4]] (REQUEST)
r 2.585322028 _10_ RTR  --- 0 AODV 48 [0 ffffffff 3 800] ------- [3:255 -1:255 3 0] [0x2 3 1 [2 0] [1 4]] (REQUEST)
r 2.585322071 _16_ RTR  --- 0 AODV 48 [0 ffffffff 3 800] ------- [3:255 -1:255 3 0] [0x2 3 1 [2 0] [1 4]] (REQUEST)
r 2.585322073 _15_ RTR  --- 0 AODV 48 [0 ffffffff 3 800] ------- [3:255 -1:255 3 0] [0x2 3 1 [2 0] [1 4]] (REQUEST)
r 2.585322198 _0_ RTR  --- 0 AODV 48 [0 ffffffff 3 800] ------- [3:255 -1:255 3 0] [0x2 3 1 [2 0] [1 4]] (REQUEST)
r 2.585322292 _11_ RTR  --- 0 AODV 48 [0 ffffffff 3 800] ------- [3:255 -1:255 3 0] [0x2 3 1 [2 0] [1 4]] (REQUEST)
r 2.585322304 _14_ RTR  --- 0 AODV 48 [0 ffffffff 3 800] ------- [3:255 -1:255 3 0] [0x2 3 1 [2 0] [1 4]] (REQUEST)
r 2.585322332 _18_ RTR  --- 0 AODV 48 [0 ffffffff 3 800] ------- [3:255 -1:255 3 0] [0x2 3 1 [2 0] [1 4]] (REQUEST)
r 2.585322465 _13_ RTR  --- 0 AODV 48 [0 ffffffff 3 800] ------- [3:255 -1:255 3 0] [0x2 3 1 [2 0] [1 4]] (REQUEST)
r 2.585322504 _8_ RTR  --- 0 AODV 48 [0 ffffffff 3 800] ------- [3:255 -1:255 3 0] [0x2 3 1 [2 0] [1 4]] (REQUEST)
r 2.585322571 _17_ RTR  --- 0 AODV 48 [0 ffffffff 3 800] ------- [3:255 -1:255 3 0] [0x2 3 1 [2 0] [1 4]] (REQUEST)
r 2.585322694 _5_ RTR  --- 0 AODV 48 [0 ffffffff 3 800] ------- [3:255 -1:255 3 0] [0x2 3 1 [2 0] [1 4]] (REQUEST)
s 2.606872836 _1_ AGT  --- 1 cbr 512 [0 0 0 0] ------- [1:0 2:0 32 0] [1] 0 1
r 2.606872836 _1_ RTR  --- 1 cbr 512 [0 0 0 0] ------- [1:0 2:0 32 0] [1] 0 1
s 2.606872836 _1_ RTR  --- 1 cbr 532 [0 0 0 0] ------- [1:0 2:0 30 2] [1] 0 1
r 2.612609263 _2_ AGT  --- 1 cbr 532 [13a 2 1 800] ------- [1:0 2:0 30 2] [1] 1 1
s 2.726366563 _1_ AGT  --- 2 cbr 512 [0 0 0 0] ------- [1:0 2:0 32 0] [2] 0 1
r 2.726366563 _1_ RTR  --- 2 cbr 512 [0 0 0 0] ------- [1:0 2:0 32 0] [2] 0 1
s 2.726366563 _1_ RTR  --- 2 cbr 532 [0 0 0 0] ------- [1:0 2:0 30 2] [2] 0 1
r 2.731902979 _2_ AGT  --- 2 cbr 532 [13a 2 1 800] ------- [1:0 2:0 30 2] [2] 1 1
s 2.785502254 _1_ AGT  --- 3 cbr 512 [0 0 0 0] ------- [1:0 2:0 32 0] [3] 0 1
r 2.785502254 _1_ RTR  --- 3 cbr 512 [0 0 0 0] ------- [1:0 2:0 32 0] [3] 0 1
s 2.785502254 _1_ RTR  --- 3 cbr 532 [0 0 0 0] ------- [1:0 2:0 30 2] [3] 0 1
r 2.791198666 _2_ AGT  --- 3 cbr 532 [13a 2 1 800] ------- [1:0 2:0 30 2] [3] 1 1
s 2.922012802 _1_ AGT  --- 4 cbr 512 [0 0 0 0] ------- [1:0 2:0 32 0] [4] 0 1