V -t * -v 1.0a5 -a 0
W -t * -x 400 -y 400
A -t * -n 1 -p 0 -o 0x7fffffff -c 30 -a 1
A -t * -h 1 -m 1073741823 -s 0
n -t 0.000000 -s 0 -x 13.625107 -y 286.654334 -U 0.992859 -V -1.190803 -T 130.658273
n -t 0.000000 -s 1 -x 361.848211 -y 112.317968 -U -3.867810 -V 2.175095 -T 82.532188
n -t 0.000000 -s 2 -x 300.053281 -y 139.027374 -U 3.624265 -V -5.778166 -T 12.500264
n -t 0.000000 -s 3 -x 49.129421 -y 209.548165 -U 2.354761 -V -1.345928 -T 135.888923
n -t 0.000000 -s 4 -x 389.423206 -y 278.924507 -U -1.503383 -V 0.914781 -T 132.002776
n -t 0.000000 -s 5 -x 174.582063 -y 13.719678 -U 7.869194 -V 1.056379 -T 19.445797
n -t 0.000000 -s 6 -x 379.593337 -y 380.452280 -U -6.550654 -V -6.823507 -T 14.716211
n -t 0.000000 -s 7 -x 276.646074 -y 98.170964 -U 4.943399 -V -4.956871 -T 4.062800
n -t 0.000000 -s 8 -x 226.515721 -y 192.901855 -U 1.459055 -V -8.106762 -T 22.829759
n -t 0.000000 -s 9 -x 18.171571 -y 191.524365 -U 6.277587 -V 6.637248 -T 21.172786
n -t 0.000000 -s 10 -x 27.864130 -y 178.260316 -U 1.441218 -V 0.329951 -T 83.354076
n -t 0.000000 -s 11 -x 160.540368 -y 231.157970 -U 3.607127 -V -7.522534 -T 23.587730
n -t 0.000000 -s 12 -x 348.151808 -y 237.528738 -U 4.133926 -V 5.528457 -T 5.339947
n -t 0.000000 -s 13 -x 170.829300 -y 75.754586 -U -1.381717 -V 2.648560 -T 74.754431
n -t 0.000000 -s 14 -x 72.536682 -y 89.908699 -U 2.079006 -V -0.057746 -T 118.003006
n -t 0.000000 -s 15 -x 63.675249 -y 164.052628 -U 4.602706 -V -1.082231 -T 67.452767
n -t 0.000000 -s 16 -x 101.875092 -y 216.859729 -U 0.254910 -V -0.147173 -T 131.722756
n -t 0.000000 -s 17 -x 200.985774 -y 344.595685 -U -1.122582 -V -0.144623 -T 77.903929
n -t 0.000000 -s 18 -x 8.332047 -y 332.696998 -U 4.581240 -V -1.765158 -T 58.826004
n -t 0.000000 -s 19 -x 376.931866 -y 288.937980 -U -2.472930 -V -2.134413 -T 99.231293
+ -t 2.556838879 -s 1 -d -1 -p cbr -e 512 -c 2 -a 0 -i 0 -k AGT 
- -t 2.556838879 -s 1 -d -1 -p cbr -e 512 -c 2 -a 0 -i 0 -k AGT
h -t 2.556838879 -s 1 -d -1 -p cbr -e 512 -c 2 -a 0 -i 0 -k AGT
+ -t 2.556838879 -s 1 -d -1 -p AODV -e 48 -c 2 -a 0 -i 0 -k RTR 
- -t 2.556838879 -s 1 -d -1 -p AODV -e 48 -c 2 -a 0 -i 0 -k RTR
h -t 2.556838879 -s 1 -d -1 -p AODV -e 48 -c 2 -a 0 -i 0 -k RTR
r -t 2.557827022 -s 2 -d -1 -p AODV -e 48 -c 2 -a 0 -i 0 -k RTR
+ -t 2.557827022 -s 2 -d 1 -p AODV -e 44 -c 2 -a 0 -i 0 -k RTR 
- -t 2.557827022 -s 2 -d 1 -p AODV -e 44 -c 2 -a 0 -i 0 -k RTR
h -t 2.557827022 -s 2 -d 1 -p AODV -e 44 -c 2 -a 0 -i 0 -k RTR
r -t 2.557827114 -s 7 -d -1 -p AODV -e 48 -c 2 -a 0 -i 0 -k RTR
r -t 2.557827323 -s 8 -d -1 -p AODV -e 48 -c 2 -a 0 -i 0 -k RTR
r -t 2.557827325 -s 12 -d -1 -p AODV -e 48 -c 2 -a 0 -i 0 -k RTR
r -t 2.557827434 -s 19 -d -1 -p AODV -e 48 -c 2 -a 0 -i 0 -k RTR
r -t 2.557827435 -s 4 -d -1 -p AODV -e 48 -c 2 -a 0 -i 0 -k RTR
r -t 2.557827503 -s 5 -d -1 -p AODV -e 48 -c 2 -a 0 -i 0 -k RTR
r -t 2.557827505 -s 13 -d -1 -p AODV -e 48 -c 2 -a 0 -i 0 -k RTR
r -t 2.557827562 -s 11 -d -1 -p AODV -e 48 -c 2 -a 0 -i 0 -k RTR
r -t 2.557827697 -s 6 -d -1 -p AODV -e 48 -c 2 -a 0 -i 0 -k RTR
+ -t 2.558708341 -s 7 -d -1 -p AODV -e 48 -c 2 -a 0 -i 0 -k RTR 
- -t 2.558708341 -s 7 -d -1 -p AODV -e 48 -c 2 -a 0 -i 0 -k RTR
h -t 2.558708341 -s 7 -d -1 -p AODV -e 48 -c 2 -a 0 -i 0 -k RTR
r -t 2.559816486 -s 2 -d -1 -p AODV -e 48 -c 2 -a 0 -i 0 -k RTR
r -t 2.559816576 -s 1 -d -1 -p AODV -e 48 -c 2 -a 0 -i 0 -k RTR
r -t 2.559816690 -s 8 -d -1 -p AODV -e 48 -c 2 -a 0 -i 0 -k RTR
r -t 2.559816731 -s 5 -d -1 -p AODV -e 48 -c 2 -a 0 -i 0 -k RTR
r -t 2.559816747 -s 13 -d -1 -p AODV -e 48 -c 2 -a 0 -i 0 -k RTR
r -t 2.559816920 -s 11 -d -1 -p AODV -e 48 -c 2 -a 0 -i 0 -k RTR
r -t 2.559816941 -s 12 -d -1 -p AODV -e 48 -c 2 -a 0 -i 0 -k RTR
r -t 2.559817045 -s 14 -d -1 -p AODV -e 48 -c 2 -a 0 -i 0 -k RTR
r -t 2.559817054 -s 19 -d -1 -p AODV -e 48 -c 2 -a 0 -i 0 -k RTR
r -t 2.559817068 -s 4 -d -1 -p AODV -e 48 -c 2 -a 0 -i 0 -k RTR
r -t 2.559817097 -s 15 -d -1 -p AODV -e 48 -c 2 -a 0 -i 0 -k RTR
r -t 2.559817101 -s 16 -d -1 -p AODV -e 48 -c 2 -a 0 -i 0 -k RTR
+ -t 2.560173520 -s 5 -d -1 -p AODV -e 48 -c 2 -a 0 -i 0 -k RTR 
- -t 2.560173520 -s 5 -d -1 -p AODV -e 48 -c 2 -a 0 -i 0 -k RTR
h -t 2.560173520 -s 5 -d -1 -p AODV -e 48 -c 2 -a 0 -i 0 -k RTR
+ -t 2.560918353 -s 11 -d -1 -p AODV -e 48 -c 2 -a 0 -i 0 -k RTR 
- -t 2.560918353 -s 11 -d -1 -p AODV -e 48 -c 2 -a 0 -i 0 -k RTR
h -t 2.560918353 -s 11 -d -1 -p AODV -e 48 -c 2 -a 0 -i 0 -k RTR
+ -t 2.560957052 -s 19 -d -1 -p AODV -e 48 -c 2 -a 0 -i 0 -k RTR 
- -t 2.560957052 -s 19 -d -1 -p AODV -e 48 -c 2 -a 0 -i 0 -k RTR
h -t 2.560957052 -s 19 -d -1 -p AODV -e 48 -c 2 -a 0 -i 0 -k RTR
+ -t 2.561565154 -s 16 -d -1 -p AODV -e 48 -c 2 -a 0 -i 0 -k RTR 
- -t 2.561565154 -s 16 -d -1 -p AODV -e 48 -c 2 -a 0 -i 0 -k RTR
h -t 2.561565154 -s 16 -d -1 -p AODV -e 48 -c 2 -a 0 -i 0 -k RTR
+ -t 2.562239057 -s 8 -d -1 -p AODV -e 48 -c 2 -a 0 -i 0 -k RTR 
- -t 2.562239057 -s 8 -d -1 -p AODV -e 48 -c 2 -a 0 -i 0 -k RTR
h -t 2.562239057 -s 8 -d -1 -p AODV -e 48 -c 2 -a 0 -i 0 -k RTR
+ -t 2.563347437 -s 1 -d 2 -p cbr -e 532 -c 2 -a 0 -i 0 -k RTR 
- -t 2.563347437 -s 1 -d 2 -p cbr -e 532 -c 2 -a 0 -i 0 -k RTR
h -t 2.563347437 -s 1 -d 2 -p cbr -e 532 -c 2 -a 0 -i 0 -k RTR
+ -t 2.564053664 -s 15 -d -1 -p AODV -e 48 -c 2 -a 0 -i 0 -k RTR 
- -t 2.564053664 -s 15 -d -1 -p AODV -e 48 -c 2 -a 0 -i 0 -k RTR
h -t 2.564053664 -s 15 -d -1 -p AODV -e 48 -c 2 -a 0 -i 0 -k RTR
+ -t 2.564216157 -s 13 -d -1 -p AODV -e 48 -c 2 -a 0 -i 0 -k RTR 
- -t 2.564216157 -s 13 -d -1 -p AODV -e 48 -c 2 -a 0 -i 0 -k RTR
h -t 2.564216157 -s 13 -d -1 -p AODV -e 48 -c 2 -a 0 -i 0 -k RTR
r -t 2.564720043 -s 4 -d -1 -p AODV -e 48 -c 2 -a 0 -i 0 -k RTR
r -t 2.564720106 -s 12 -d -1 -p AODV -e 48 -c 2 -a 0 -i 0 -k RTR
r -t 2.564720259 -s 6 -d -1 -p AODV -e 48 -c 2 -a 0 -i 0 -k RTR
r -t 2.564720548 -s 1 -d -1 -p AODV -e 48 -c 2 -a 0 -i 0 -k RTR
r -t 2.564720561 -s 2 -d -1 -p AODV -e 48 -c 2 -a 0 -i 0 -k RTR
r -t 2.564720590 -s 8 -d -1 -p AODV -e 48 -c 2 -a 0 -i 0 -k RTR
r -t 2.564720602 -s 17 -d -1 -p AODV -e 48 -c 2 -a 0 -i 0 -k RTR
r -t 2.564720703 -s 11 -d -1 -p AODV -e 48 -c 2 -a 0 -i 0 -k RTR
r -t 2.564720706 -s 7 -d -1 -p AODV -e 48 -c 2 -a 0 -i 0 -k RTR
r -t 2.565698831 -s 11 -d -1 -p AODV -e 48 -c 2 -a 0 -i 0 -k RTR
r -t 2.565698898 -s 2 -d -1 -p AODV -e 48 -c 2 -a 0 -i 0 -k RTR
r -t 2.565698939 -s 7 -d -1 -p AODV -e 48 -c 2 -a 0 -i 0 -k RTR
r -t 2.565698955 -s 13 -d -1 -p AODV -e 48 -c 2 -a 0 -i 0 -k RTR
r -t 2.565699034 -s 1 -d -1 -p AODV -e 48 -c 2 -a 0 -i 0 -k RTR
r -t 2.565699040 -s 16 -d -1 -p AODV -e 48 -c 2 -a 0 -i 0 -k RTR
r -t 2.565699094 -s 12 -d -1 -p AODV -e 48 -c 2 -a 0 -i 0 -k RTR
r -t 2.565699107 -s 15 -d -1 -p AODV -e 48 -c 2 -a 0 -i 0 -k RTR
r -t 2.565699122 -s 5 -d -1 -p AODV -e 48 -c 2 -a 0 -i 0 -k RTR
r -t 2.565699167 -s 14 -d -1 -p AODV -e 48 -c 2 -a 0 -i 0 -k RTR
r -t 2.565699173 -s 17 -d -1 -p AODV -e 48 -c 2 -a 0 -i 0 -k RTR
r -t 2.565699184 -s 3 -d -1 -p AODV -e 48 -c 2 -a 0 -i 0 -k RTR
r -t 2.565699187 -s 19 -d -1 -p AODV -e 48 -c 2 -a 0 -i 0 -k RTR
r -t 2.565699222 -s 4 -d -1 -p AODV -e 48 -c 2 -a 0 -i 0 -k RTR
r -t 2.565699252 -s 10 -d -1 -p AODV -e 48 -c 2 -a 0 -i 0 -k RTR
r -t 2.565699254 -s 9 -d -1 -p AODV -e 48 -c 2 -a 0 -i 0 -k RTR
r -t 2.565699364 -s 6 -d -1 -p AODV -e 48 -c 2 -a 0 -i 0 -k RTR
r -t 2.565699394 -s 0 -d -1 -p AODV -e 48 -c 2 -a 0 -i 0 -k RTR
+ -t 2.565818880 -s 12 -d -1 -p AODV -e 48 -c 2 -a 0 -i 0 -k RTR 
- -t 2.565818880 -s 12 -d -1 -p AODV -e 48 -c 2 -a 0 -i 0 -k RTR
h -t 2.565818880 -s 12 -d -1 -p AODV -e 48 -c 2 -a 0 -i 0 -k RTR
+ -t 2.565992195 -s 4 -d -1 -p AODV -e 48 -c 2 -a 0 -i 0 -k RTR 
- -t 2.565992195 -s 4 -d -1 -p AODV -e 48 -c 2 -a 0 -i 0 -k RTR
h -t 2.565992195 -s 4 -d -1 -p AODV -e 48 -c 2 -a 0 -i 0 -k RTR
+ -t 2.566190932 -s 6 -d -1 -p AODV -e 48 -c 2 -a 0 -i 0 -k RTR 
- -t 2.566190932 -s 6 -d -1 -p AODV -e 48 -c 2 -a 0 -i 0 -k RTR
h -t 2.566190932 -s 6 -d -1 -p AODV -e 48 -c 2 -a 0 -i 0 -k RTR
r -t 2.566657056 -s 16 -d -1 -p AODV -e 48 -c 2 -a 0 -i 0 -k RTR
r -t 2.566657072 -s 8 -d -1 -p AODV -e 48 -c 2 -a 0 -i 0 -k RTR
r -t 2.566657188 -s 15 -d -1 -p AODV -e 48 -c 2 -a 0 -i 0 -k RTR
r -t 2.566657213 -s 3 -d -1 -p AODV -e 48 -c 2 -a 0 -i 0 -k RTR
r -t 2.566657262 -s 13 -d -1 -p AODV -e 48 -c 2 -a 0 -i 0 -k RTR
r -t 2.566657282 -s 17 -d -1 -p AODV -e 48 -c 2 -a 0 -i 0 -k RTR
r -t 2.566657283 -s 9 -d -1 -p AODV -e 48 -c 2 -a 0 -i 0 -k RTR
r -t 2.566657304 -s 10 -d -1 -p AODV -e 48 -c 2 -a 0 -i 0 -k RTR
r -t 2.566657340 -s 14 -d -1 -p AODV -e 48 -c 2 -a 0 -i 0 -k RTR
r -t 2.566657380 -s 2 -d -1 -p AODV -e 48 -c 2 -a 0 -i 0 -k RTR
r -t 2.566657396 -s 0 -d -1 -p AODV -e 48 -c 2 -a 0 -i 0 -k RTR
r -t 2.566657411 -s 7 -d -1 -p AODV -e 48 -c 2 -a 0 -i 0 -k RTR
r -t 2.566657463 -s 18 -d -1 -p AODV -e 48 -c 2 -a 0 -i 0 -k RTR
r -t 2.566657475 -s 12 -d -1 -p AODV -e 48 -c 2 -a 0 -i 0 -k RTR
r -t 2.566657488 -s 5 -d -1 -p AODV -e 48 -c 2 -a 0 -i 0 -k RTR
r -t 2.566657514 -s 1 -d -1 -p AODV -e 48 -c 2 -a 0 -i 0 -k RTR
r -t 2.566657542 -s 19 -d -1 -p AODV -e 48 -c 2 -a 0 -i 0 -k RTR
r -t 2.566657586 -s 4 -d -1 -p AODV -e 48 -c 2 -a 0 -i 0 -k RTR
r -t 2.566657648 -s 6 -d -1 -p AODV -e 48 -c 2 -a 0 -i 0 -k RTR
+ -t 2.567132858 -s 17 -d -1 -p AODV -e 48 -c 2 -a 0 -i 0 -k RTR 
- -t 2.567132858 -s 17 -d -1 -p AODV -e 48 -c 2 -a 0 -i 0 -k RTR
h -t 2.567132858 -s 17 -d -1 -p AODV -e 48 -c 2 -a 0 -i 0 -k RTR
r -t 2.567655726 -s 13 -d -1 -p AODV -e 48 -c 2 -a 0 -i 0 -k RTR
r -t 2.567655878 -s 7 -d -1 -p AODV -e 48 -c 2 -a 0 -i 0 -k RTR
r -t 2.567655914 -s 19 -d -1 -p AODV -e 48 -c 2 -a 0 -i 0 -k RTR
r -t 2.567655931 -s 4 -d -1 -p AODV -e 48 -c 2 -a 0 -i 0 -k RTR
r -t 2.567655948 -s 14 -d -1 -p AODV -e 48 -c 2 -a 0 -i 0 -k RTR
r -t 2.567656019 -s 12 -d -1 -p AODV -e 48 -c 2 -a 0 -i 0 -k RTR
r -t 2.567656113 -s 15 -d -1 -p AODV -e 48 -c 2 -a 0 -i 0 -k RTR
r -t 2.567656200 -s 17 -d -1 -p AODV -e 48 -c 2 -a 0 -i 0 -k RTR
+ -t 2.568414322 -s 14 -d -1 -p AODV -e 48 -c 2 -a 0 -i 0 -k RTR 
- -t 2.568414322 -s 14 -d -1 -p AODV -e 48 -c 2 -a 0 -i 0 -k RTR
h -t 2.568414322 -s 14 -d -1 -p AODV -e 48 -c 2 -a 0 -i 0 -k RTR
+ -t 2.569754585 -s 0 -d -1 -p AODV -e 48 -c 2 -a 0 -i 0 -k RTR 
- -t 2.569754585 -s 0 -d -1 -p AODV -e 48 -c 2 -a 0 -i 0 -k RTR
h -t 2.569754585 -s 0 -d -1 -p AODV -e 48 -c 2 -a 0 -i 0 -k RTR
+ -t 2.572472674 -s 3 -d -1 -p AODV -e 48 -c 2 -a 0 -i 0 -k RTR 
- -t 2.572472674 -s 3 -d -1 -p AODV -e 48 -c 2 -a 0 -i 0 -k RTR
h -t 2.572472674 -s 3 -d -1 -p AODV -e 48 -c 2 -a 0 -i 0 -k RTR
+ -t 2.573321571 -s 10 -d -1 -p AODV -e 48 -c 2 -a 0 -i 0 -k RTR 
- -t 2.573321571 -s 10 -d -1 -p AODV -e 48 -c 2 -a 0 -i 0 -k RTR
h -t 2.573321571 -s 10 -d -1 -p AODV -e 48 -c 2 -a 0 -i 0 -k RTR
r -t 2.573506896 -s 2 -d 2 -p cbr -e 532 -c 2 -a 0 -i 0 -k AGT
+ -t 2.574748709 -s 9 -d -1 -p AODV -e 48 -c 2 -a 0 -i 0 -k RTR 
- -t 2.574748709 -s 9 -d -1 -p AODV -e 48 -c 2 -a 0 -i 0 -k RTR
h -t 2.574748709 -s 9 -d -1 -p AODV -e 48 -c 2 -a 0 -i 0 -k RTR
r -t 2.574779528 -s 19 -d -1 -p AODV -e 48 -c 2 -a 0 -i 0 -k RTR
r -t 2.574779610 -s 12 -d -1 -p AODV -e 48 -c 2 -a 0 -i 0 -k RTR
r -t 2.574779760 -s 6 -d -1 -p AODV -e 48 -c 2 -a 0 -i 0 -k RTR
r -t 2.574780034 -s 1 -d -1 -p AODV -e 48 -c 2 -a 0 -i 0 -k RTR
r -t 2.574780060 -s 2 -d -1 -p AODV -e 48 -c 2 -a 0 -i 0 -k RTR
r -t 2.574780111 -s 8 -d -1 -p AODV -e 48 -c 2 -a 0 -i 0 -k RTR
r -t 2.574780137 -s 17 -d -1 -p AODV -e 48 -c 2 -a 0 -i 0 -k RTR
r -t 2.574780205 -s 7 -d -1 -p AODV -e 48 -c 2 -a 0 -i 0 -k RTR
r -t 2.574780233 -s 11 -d -1 -p AODV -e 48 -c 2 -a 0 -i 0 -k RTR
r -t 2.575757723 -s 19 -d -1 -p AODV -e 48 -c 2 -a 0 -i 0 -k RTR
r -t 2.575757743 -s 4 -d -1 -p AODV -e 48 -c 2 -a 0 -i 0 -k RTR
r -t 2.575757981 -s 6 -d -1 -p AODV -e 48 -c 2 -a 0 -i 0 -k RTR
r -t 2.575758057 -s 1 -d -1 -p AODV -e 48 -c 2 -a 0 -i 0 -k RTR
r -t 2.575758067 -s 2 -d -1 -p AODV -e 48 -c 2 -a 0 -i 0 -k RTR
r -t 2.575758115 -s 8 -d -1 -p AODV -e 48 -c 2 -a 0 -i 0 -k RTR
r -t 2.575758211 -s 7 -d -1 -p AODV -e 48 -c 2 -a 0 -i 0 -k RTR
r -t 2.575758228 -s 17 -d -1 -p AODV -e 48 -c 2 -a 0 -i 0 -k RTR
r -t 2.575758254 -s 11 -d -1 -p AODV -e 48 -c 2 -a 0 -i 0 -k RTR
+ -t 2.576120112 -s 18 -d -1 -p AODV -e 48 -c 2 -a 0 -i 0 -k RTR 
- -t 2.576120112 -s 18 -d -1 -p AODV -e 48 -c 2 -a 0 -i 0 -k RTR
h -t 2.576120112 -s 18 -d -1 -p AODV -e 48 -c 2 -a 0 -i 0 -k RTR
r -t 2.576736680 -s 11 -d -1 -p AODV -e 48 -c 2 -a 0 -i 0 -k RTR
r -t 2.576736760 -s 16 -d -1 -p AODV -e 48 -c 2 -a 0 -i 0 -k RTR
r -t 2.576736781 -s 6 -d -1 -p AODV -e 48 -c 2 -a 0 -i 0 -k RTR
r -t 2.576736812 -s 8 -d -1 -p AODV -e 48 -c 2 -a 0 -i 0 -k RTR
r -t 2.576736824 -s 18 -d -1 -p AODV -e 48 -c 2 -a 0 -i 0 -k RTR
r -t 2.576736838 -s 19 -d -1 -p AODV -e 48 -c 2 -a 0 -i 0 -k RTR
r -t 2.576736847 -s 12 -d -1 -p AODV -e 48 -c 2 -a 0 -i 0 -k RTR
r -t 2.576736868 -s 0 -d -1 -p AODV -e 48 -c 2 -a 0 -i 0 -k RTR
r -t 2.576736888 -s 4 -d -1 -p AODV -e 48 -c 2 -a 0 -i 0 -k RTR
r -t 2.576736891 -s 3 -d -1 -p AODV -e 48 -c 2 -a 0 -i 0 -k RTR
r -t 2.576736937 -s 9 -d -1 -p AODV -e 48 -c 2 -a 0 -i 0 -k RTR
r -t 2.576736963 -s 15 -d -1 -p AODV -e 48 -c 2 -a 0 -i 0 -k RTR
r -t 2.576737010 -s 10 -d -1 -p AODV -e 48 -c 2 -a 0 -i 0 -k RTR
r -t 2.576737051 -s 2 -d -1 -p AODV -e 48 -c 2 -a 0 -i 0 -k RTR
r -t 2.577654922 -s 3 -d -1 -p AODV -e 48 -c 2 -a 0 -i 0 -k RTR
r -t 2.577654965 -s 15 -d -1 -p AODV -e 48 -c 2 -a 0 -i 0 -k RTR
r -t 2.577654985 -s 11 -d -1 -p AODV -e 48 -c 2 -a 0 -i 0 -k RTR
r -t 2.577654989 -s 9 -d -1 -p AODV -e 48 -c 2 -a 0 -i 0 -k RTR
r -t 2.577655028 -s 10 -d -1 -p AODV -e 48 -c 2 -a 0 -i 0 -k RTR
r -t 2.577655125 -s 0 -d -1 -p AODV -e 48 -c 2 -a 0 -i 0 -k RTR
r -t 2.577655191 -s 14 -d -1 -p AODV -e 48 -c 2 -a 0 -i 0 -k RTR
r -t 2.577655211 -s 8 -d -1 -p AODV -e 48 -c 2 -a 0 -i 0 -k RTR
r -t 2.577655223 -s 18 -d -1 -p AODV -e 48 -c 2 -a 0 -i 0 -k RTR
r -t 2.577655256 -s 13 -d -1 -p AODV -e 48 -c 2 -a 0 -i 0 -k RTR
r -t 2.577655292 -s 17 -d -1 -p AODV -e 48 -c 2 -a 0 -i 0 -k RTR
r -t 2.577655495 -s 5 -d -1 -p AODV -e 48 -c 2 -a 0 -i 0 -k RTR
r -t 2.577655515 -s 2 -d -1 -p AODV -e 48 -c 2 -a 0 -i 0 -k RTR
r -t 2.577655521 -s 7 -d -1 -p AODV -e 48 -c 2 -a 0 -i 0 -k RTR
r -t 2.578673429 -s 15 -d -1 -p AODV -e 48 -c 2 -a 0 -i 0 -k RTR
r -t 2.578673489 -s 13 -d -1 -p AODV -e 48 -c 2 -a 0 -i 0 -k RTR
r -t 2.578673526 -s 10 -d -1 -p AODV -e 48 -c 2 -a 0 -i 0 -k RTR
r -t 2.578673586 -s 3 -d -1 -p AODV -e 48 -c 2 -a 0 -i 0 -k RTR
r -t 2.578673613 -s 9 -d -1 -p AODV -e 48 -c 2 -a 0 -i 0 -k RTR
r -t 2.578673621 -s 16 -d -1 -p AODV -e 48 -c 2 -a 0 -i 0 -k RTR
r -t 2.578673651 -s 5 -d -1 -p AODV -e 48 -c 2 -a 0 -i 0 -k RTR
r -t 2.578673700 -s 11 -d -1 -p AODV -e 48 -c 2 -a 0 -i 0 -k RTR
r -t 2.578673768 -s 8 -d -1 -p AODV -e 48 -c 2 -a 0 -i 0 -k RTR
r -t 2.578673869 -s 0 -d -1 -p AODV -e 48 -c 2 -a 0 -i 0 -k RTR
r -t 2.578673896 -s 7 -d -1 -p AODV -e 48 -c 2 -a 0 -i 0 -k RTR
r -t 2.578673971 -s 2 -d -1 -p AODV -e 48 -c 2 -a 0 -i 0 -k RTR
r -t 2.578674008 -s 18 -d -1 -p AODV -e 48 -c 2 -a 0 -i 0 -k RTR
r -t 2.579591728 -s 5 -d -1 -p AODV -e 48 -c 2 -a 0 -i 0 -k RTR
r -t 2.579591788 -s 14 -d -1 -p AODV -e 48 -c 2 -a 0 -i 0 -k RTR
r -t 2.579591854 -s 8 -d -1 -p AODV -e 48 -c 2 -a 0 -i 0 -k RTR
r -t 2.579591892 -s 15 -d -1 -p AODV -e 48 -c 2 -a 0 -i 0 -k RTR
r -t 2.579591897 -s 7 -d -1 -p AODV -e 48 -c 2 -a 0 -i 0 -k RTR
r -t 2.579591920 -s 11 -d -1 -p AODV -e 48 -c 2 -a 0 -i 0 -k RTR
r -t 2.579591983 -s 2 -d -1 -p AODV -e 48 -c 2 -a 0 -i 0 -k RTR
r -t 2.579591985 -s 16 -d -1 -p AODV -e 48 -c 2 -a 0 -i 0 -k RTR
r -t 2.579592045 -s 10 -d -1 -p AODV -e 48 -c 2 -a 0 -i 0 -k RTR
r -t 2.579592045 -s 3 -d -1 -p AODV -e 48 -c 2 -a 0 -i 0 -k RTR
r -t 2.579592100 -s 9 -d -1 -p AODV -e 48 -c 2 -a 0 -i 0 -k RTR
r -t 2.579592116 -s 1 -d -1 -p AODV -e 48 -c 2 -a 0 -i 0 -k RTR
r -t 2.580610143 -s 9 -d -1 -p AODV -e 48 -c 2 -a 0 -i 0 -k RTR
r -t 2.580610164 -s 3 -d -1 -p AODV -e 48 -c 2 -a 0 -i 0 -k RTR
r -t 2.580610203 -s 15 -d -1 -p AODV -e 48 -c 2 -a 0 -i 0 -k RTR
r -t 2.580610312 -s 16 -d -1 -p AODV -e 48 -c 2 -a 0 -i 0 -k RTR
r -t 2.580610380 -s 14 -d -1 -p AODV -e 48 -c 2 -a 0 -i 0 -k RTR
r -t 2.580610397 -s 0 -d -1 -p AODV -e 48 -c 2 -a 0 -i 0 -k RTR
r -t 2.580610518 -s 11 -d -1 -p AODV -e 48 -c 2 -a 0 -i 0 -k RTR
r -t 2.580610543 -s 18 -d -1 -p AODV -e 48 -c 2 -a 0 -i 0 -k RTR
r -t 2.580610600 -s 13 -d -1 -p AODV -e 48 -c 2 -a 0 -i 0 -k RTR
r -t 2.580610707 -s 8 -d -1 -p AODV -e 48 -c 2 -a 0 -i 0 -k RTR
r -t 2.580610813 -s 5 -d -1 -p AODV -e 48 -c 2 -a 0 -i 0 -k RTR
r -t 2.580610826 -s 17 -d -1 -p AODV -e 48 -c 2 -a 0 -i 0 -k RTR
r -t 2.581568692 -s 0 -d -1 -p AODV -e 48 -c 2 -a 0 -i 0 -k RTR
r -t 2.581568944 -s 9 -d -1 -p AODV -e 48 -c 2 -a 0 -i 0 -k RTR
r -t 2.581568966 -s 3 -d -1 -p AODV -e 48 -c 2 -a 0 -i 0 -k RTR
r -t 2.581569005 -s 16 -d -1 -p AODV -e 48 -c 2 -a 0 -i 0 -k RTR
r -t 2.581569041 -s 10 -d -1 -p AODV -e 48 -c 2 -a 0 -i 0 -k RTR
r -t 2.581569129 -s 15 -d -1 -p AODV -e 48 -c 2 -a 0 -i 0 -k RTR
r -t 2.581569138 -s 17 -d -1 -p AODV -e 48 -c 2 -a 0 -i 0 -k RTR
r -t 2.581569175 -s 11 -d -1 -p AODV -e 48 -c 2 -a 0 -i 0 -k RTR
r -t 2.581569360 -s 14 -d -1 -p AODV -e 48 -c 2 -a 0 -i 0 -k RTR
r -t 2.582507287 -s 10 -d -1 -p AODV -e 48 -c 2 -a 0 -i 0 -k RTR
r -t 2.582507293 -s 3 -d -1 -p AODV -e 48 -c 2 -a 0 -i 0 -k RTR
r -t 2.582507334 -s 16 -d -1 -p AODV -e 48 -c 2 -a 0 -i 0 -k RTR
r -t 2.582507338 -s 9 -d -1 -p AODV -e 48 -c 2 -a 0 -i 0 -k RTR
r -t 2.582507367 -s 14 -d -1 -p AODV -e 48 -c 2 -a 0 -i 0 -k RTR
r -t 2.582507485 -s 11 -d -1 -p AODV -e 48 -c 2 -a 0 -i 0 -k RTR
r -t 2.582507532 -s 13 -d -1 -p AODV -e 48 -c 2 -a 0 -i 0 -k RTR
r -t 2.582507582 -s 0 -d -1 -p AODV -e 48 -c 2 -a 0 -i 0 -k RTR
r -t 2.582507646 -s 8 -d -1 -p AODV -e 48 -c 2 -a 0 -i 0 -k RTR
r -t 2.582507715 -s 18 -d -1 -p AODV -e 48 -c 2 -a 0 -i 0 -k RTR
r -t 2.582507754 -s 5 -d -1 -p AODV -e 48 -c 2 -a 0 -i 0 -k RTR
r -t 2.582507863 -s 17 -d -1 -p AODV -e 48 -c 2 -a 0 -i 0 -k RTR
r -t 2.582507885 -s 7 -d -1 -p AODV -e 48 -c 2 -a 0 -i 0 -k RTR
r -t 2.582507918 -s 2 -d -1 -p AODV -e 48 -c 2 -a 0 -i 0 -k RTR
r -t 2.583485731 -s 18 -d -1 -p AODV -e 48 -c 2 -a 0 -i 0 -k RTR
r -t 2.583485839 -s 9 -d -1 -p AODV -e 48 -c 2 -a 0 -i 0 -k RTR
r -t 2.583485871 -s 3 -d -1 -p AODV -e 48 -c 2 -a 0 -i 0 -k RTR
r -t 2.583485934 -s 10 -d -1 -p AODV -e 48 -c 2 -a 0 -i 0 -k RTR
r -t 2.583485947 -s 16 -d -1 -p AODV -e 48 -c 2 -a 0 -i 0 -k RTR
r -t 2.583486035 -s 15 -d -1 -p AODV -e 48 -c 2 -a 0 -i 0 -k RTR
r -t 2.583486148 -s 11 -d -1 -p AODV -e 48 -c 2 -a 0 -i 0 -k RTR
r -t 2.583486221 -s 17 -d -1 -p AODV -e 48 -c 2 -a 0 -i 0 -k RTR
r -t 2.583486260 -s 14 -d -1 -p AODV -e 48 -c 2 -a 0 -i 0 -k RTR
r -t 2.583486387 -s 8 -d -1 -p AODV -e 48 -c 2 -a 0 -i 0 -k RTR
r -t 2.584403909 -s 3 -d -1 -p AODV -e 48 -c 2 -a 0 -i 0 -k RTR
r -t 2.584403938 -s 10 -d -1 -p AODV -e 48 -c 2 -a 0 -i 0 -k RTR
r -t 2.584404048 -s 15 -d -1 -p AODV -e 48 -c 2 -a 0 -i 0 -k RTR
r -t 2.584404068 -s 16 -d -1 -p AODV -e 48 -c 2 -a 0 -i 0 -k RTR
r -t 2.584404096 -s 0 -d -1 -p AODV -e 48 -c 2 -a 0 -i 0 -k RTR
r -t 2.584404240 -s 18 -d -1 -p AODV -e 48 -c 2 -a 0 -i 0 -k RTR
r -t 2.584404261 -s 14 -d -1 -p AODV -e 48 -c 2 -a 0 -i 0 -k RTR
r -t 2.584404291 -s 11 -d -1 -p AODV -e 48 -c 2 -a 0 -i 0 -k RTR
r -t 2.584404450 -s 13 -d -1 -p AODV -e 48 -c 2 -a 0 -i 0 -k RTR
r -t 2.584404503 -s 8 -d -1 -p AODV -e 48 -c 2 -a 0 -i 0 -k RTR
r -t 2.584404547 -s 17 -d -1 -p AODV -e 48 -c 2 -a 0 -i 0 -k RTR
r -t 2.585321979 -s 9 -d -1 -p AODV -e 48 -c 2 -a 0 -i 0 -k RTR
r -t 2.585322028 -s 10 -d -1 -p AODV -e 48 -c 2 -a 0 -i 0 -k RTR
r -t 2.585322071 -s 16 -d -1 -p AODV -e 48 -c 2 -a 0 -i 0 -k RTR
r -t 2.585322073 -s 15 -d -1 -p AODV -e 48 -c 2 -a 0 -i 0 -k RTR
r -t 2.585322198 -s 0 -d -1 -p AODV -e 48 -c 2 -a 0 -i 0 -k RTR
r -t 2.585322292 -s 11 -d -1 -p AODV -e 48 -c 2 -a 0 -i 0 -k RTR
r -t 2.585322304 -s 14 -d -1 -p AODV -e 48 -c 2 -a 0 -i 0 -k RTR
r -t 2.585322332 -s 18 -d -1 -p AODV -e 48 -c 2 -a 0 -i 0 -k RTR
r -t 2.585322465 -s 13 -d -1 -p AODV -e 48 -c 2 -a 0 -i 0 -k RTR
r -t 2.585322504 -s 8 -d -1 -p AODV -e 48 -c 2 -a 0 -i 0 -k RTR
r -t 2.585322571 -s 17 -d -1 -p AODV -e 48 -c 2 -a 0 -i 0 -k RTR
r -t 2.585322694 -s 5 -d -1 -p AODV -e 48 -c 2 -a 0 -i 0 -k RTR
+ -t 2.606872836 -s 1 -d -1 -p cbr -e 512 -c 2 -a 0 -i 1 -k AGT 
- -t 2.606872836 -s 1 -d -1 -p cbr -e 512 -c 2 -a 0 -i 1 -k AGT
h -t 2.606872836 -s 1 -d -1 -p cbr -e 512 -c 2 -a 0 -i 1 -k AGT
+ -t 2.606872836 -s 1 -d 2 -p cbr -e 532 -c 2 -a 0 -i 1 -k RTR 
- -t 2.606872836 -s 1 -d 2 -p cbr -e 532 -c 2 -a 0 -i 1 -k RTR
h -t 2.606872836 -s 1 -d 2 -p cbr -e 532 -c 2 -a 0 -i 1 -k RTR
r -t 2.612609263 -s 2 -d 2 -p cbr -e 532 -c 2 -a 0 -i 1 -k AGT
+ -t 2.726366563 -s 1 -d -1 -p cbr -e 512 -c 2 -a 0 -i 2 -k AGT 
- -t 2.726366563 -s 1 -d -1 -p cbr -e 512 -c 2 -a 0 -i 2 -k AGT
h -t 2.726366563 -s 1 -d -1 -p cbr -e 512 -c 2 -a 0 -i 2 -k AGT
+ -t 2.726366563 -s 1 -d 2 -p cbr -e 532 -c 2 -a 0 -i 2 -k RTR 
- -t 2.726366563 -s 1 -d 2 -p cbr -e 532 -c 2 -a 0 -i 2 -k RTR
h -t 2.726366563 -s 1 -d 2 -p cbr -e 532 -c 2 -a 0 -i 2 -k RTR
r -t 2.731902979 -s 2 -d 2 -p cbr -e 532 -c 2 -a 0 -i 2 -k AGT
+ -t 2.785502254 -s 1 -d -1 -p cbr -e 512 -c 2 -a 0 -i 3 -k AGT 
- -t 2.785502254 -s 1 -d -1 -p cbr -e 512 -c 2 -a 0 -i 3 -k AGT
h -t 2.785502254 -s 1 -d -1 -p cbr -e 512 -c 2 -a 0 -i 3 -k AGT
+ -t 2.785502254 -s 1 -d 2 -p cbr -e 532 -c 2 -a 0 -i 3 -k RTR 
- -t 2.785502254 -s 1 -d 2 -p cbr -e 532 -c 2 -a 0 -i 3 -k RTR
h -t 2.785502254 -s 1 -d 2 -p cbr -e 532 -c 2 -a 0 -i 3 -k RTR
r -t 2.791198666 -s 2 -d 2 -p cbr -e 532 -c 2 -a 0 -i 3 -k AGT
+ -t 2.922012802 -s 1 -d -1 -p cbr -e 512 -c 2 -a 0 -i 4 -k AGT 
- -t 2.922012802 -s 1 -d -1 -p cbr -e 512 -c 2 -a 0 -i 4 -k AGT
h -t 2.922012802 -s 1 -d -1 -p cbr -e 512 -c 2 -a 0 -i 4 -k AGT
+ -t 2.922012802 -s 1 -d 2 -p cbr -e 532 -c 2 -a 0 -i 4 -k RTR 
- -t 2.922012802 -s 1 -d 2 -p cbr -e 532 -c 2 -a 0 -i 4 -k RTR
h -t 2.922012802 -s 1 -d 2 -p cbr -e 532 -c 2 -a 0 -i 4 -k RTR
r -t 2.927769203 -s 2 -d 2 -p cbr -e 532 -c 2 -a 0 -i 4 -k AGT
+ -t 3.014134807 -s 1 -d -1 -p cbr -e 512 -c 2 -a 0 -i 5 -k AGT 
- -t 3.014134807 -s 1 -d -1 -p cbr -e 512 -c 2 -a 0 -i 5 -k AGT
h -t 3.014134807 -s 1 -d -1 -p cbr -e 512 -c 2 -a 0 -i 5 -k AGT
+ -t 3.014134807 -s 1 -d 2 -p cbr -e 532 -c 2 -a 0 -i 5 -k RTR 
- -t 3.014134807 -s 1 -d 2 -p cbr -e 532 -c 2 -a 0 -i 5 -k RTR
h -t 3.014134807 -s 1 -d 2 -p cbr -e 532 -c 2 -a 0 -i 5 -k RTR
r -t 3.019971200 -s 2 -d 2 -p cbr -e 532 -c 2 -a 0 -i 5 -k AGT
+ -t 3.154419572 -s 1 -d -1 -p cbr -e 512 -c 2 -a 0 -i 6 -k AGT 
- -t 3.154419572 -s 1 -d -1 -p cbr -e 512 -c 2 -a 0 -i 6 -k AGT
h -t 3.154419572 -s 1 -d -1 -p cbr -e 512 -c 2 -a 0 -i 6 -k AGT
+ -t 3.154419572 -s 1 -d 2 -p cbr -e 532 -c 2 -a 0 -i 6 -k RTR 
- -t 3.154419572 -s 1 -d 2 -p cbr -e 532 -c 2 -a 0 -i 6 -k RTR
h -t 3.154419572 -s 1 -d 2 -p cbr -e 532 -c 2 -a 0 -i 6 -k RTR
r -t 3.159975954 -s 2 -d 2 -p cbr -e 532 -c 2 -a 0 -i 6 -k AGT
+ -t 3.263030820 -s 1 -d -1 -p cbr -e 512 -c 2 -a 0 -i 7 -k AGT 
- -t 3.263030820 -s 1 -d -1 -p cbr -e 512 -c 2 -a 0 -i 7 -k AGT
h -t 3.263030820 -s 1 -d -1 -p cbr -e 512 -c 2 -a 0 -i 7 -k AGT
+ -t 3.263030820 -s 1 -d 2 -p cbr -e 532 -c 2 -a 0 -i 7 -k RTR 
- -t 3.263030820 -s 1 -d 2 -p cbr -e 532 -c 2 -a 0 -i 7 -k RTR
h -t 3.263030820 -s 1 -d 2 -p cbr -e 532 -c 2 -a 0 -i 7 -k RTR
r -t 3.269127193 -s 2 -d 2 -p cbr -e 532 -c 2 -a 0 -i 7 -k AGT
+ -t 3.348636678 -s 1 -d -1 -p cbr -e 512 -c 2 -a 0 -i 8 -k AGT 
- -t 3.348636678 -s 1 -d -1 -p cbr -e 512 -c 2 -a 0 -i 8 -k AGT
h -t 3.348636678 -s 1 -d -1 -p cbr -e 512 -c 2 -a 0 -i 8 -k AGT
+ -t 3.348636678 -s 1 -d 2 -p cbr -e 532 -c 2 -a 0 -i 8 -k RTR 
- -t 3.348636678 -s 1 -d 2 -p cbr -e 532 -c 2 -a 0 -i 8 -k RTR
h -t 3.348636678 -s 1 -d 2 -p cbr -e 532 -c 2 -a 0 -i 8 -k RTR
r -t 3.354433045 -s 2 -d 2 -p cbr -e 532 -c 2 -a 0 -i 8 -k AGT
+ -t 3.477014182 -s 1 -d -1 -p cbr -e 512 -c 2 -a 0 -i 9 -k AGT 
- -t 3.477014182 -s 1 -d -1 -p cbr -e 512 -c 2 -a 0 -i 9 -k AGT
h -t 3.477014182 -s 1 -d -1 -p cbr -e 512 -c 2 -a 0 -i 9 -k AGT
+ -t 3.477014182 -s 1 -d 2 -p cbr -e 532 -c 2 -a 0 -i 9 -k RTR 
- -t 3.477014182 -s 1 -d 2 -p cbr -e 532 -c 2 -a 0 -i 9 -k RTR
h -t 3.477014182 -s 1 -d 2 -p cbr -e 532 -c 2 -a 0 -i 9 -k RTR
r -t 3.482850540 -s 2 -d 2 -p cbr -e 532 -c 2 -a 0 -i 9 -k AGT
+ -t 3.567651934 -s 1 -d -1 -p cbr -e 512 -c 2 -a 0 -i 10 -k AGT 
- -t 3.567651934 -s 1 -d -1 -p cbr -e 512 -c 2 -a 0 -i 10 -k AGT
h -t 3.567651934 -s 1 -d -1 -p cbr -e 512 -c 2 -a 0 -i 10 -k AGT
+ -t 3.567651934 -s 1 -d 2 -p cbr -e 532 -c 2 -a 0 -i 10 -k RTR 
- -t 3.567651934 -s 1 -d 2 -p cbr -e 532 -c 2 -a 0 -i 10 -k RTR
h -t 3.567651934 -s 1 -d 2 -p cbr -e 532 -c 2 -a 0 -i 10 -k RTR
r -t 3.573368285 -s 2 -d 2 -p cbr -e 532 -c 2 -a 0 -i 10 -k AGT
+ -t 3.617669388 -s 1 -d -1 -p cbr -e 512 -c 2 -a 0 -i 11 -k AGT 
- -t 3.617669388 -s 1 -d -1 -p cbr -e 512 -c 2 -a 0 -i 11 -k AGT
h -t 3.617669388 -s 1 -d -1 -p cbr -e 512 -c 2 -a 0 -i 11 -k AGT
+ -t 3.617669388 -s 1 -d 2 -p cbr -e 532 -c 2 -a 0 -i 11 -k RTR 
- -t 3.617669388 -s 1 -d 2 -p cbr -e 532 -c 2 -a 0 -i 11 -k RTR
h -t 3.617669388 -s 1 -d 2 -p cbr -e 532 -c 2 -a 0 -i 11 -k RTR
r -t 3.623605736 -s 2 -d 2 -p cbr -e 532 -c 2 -a 0 -i 11 -k AGT
+ -t 3.737238369 -s 1 -d -1 -p cbr -e 512 -c 2 -a 0 -i 12 -k AGT 
- -t 3.737238369 -s 1 -d -1 -p cbr -e 512 -c 2 -a 0 -i 12 -k AGT
h -t 3.737238369 -s 1 -d -1 -p cbr -e 512 -c 2 -a 0 -i 12 -k AGT
+ -t 3.737238369 -s 1 -d 2 -p cbr -e 532 -c 2 -a 0 -i 12 -k RTR 
- -t 3.737238369 -s 1 -d 2 -p cbr -e 532 -c 2 -a 0 -i 12 -k RTR
h -t 3.737238369 -s 1 -d 2 -p cbr -e 532 -c 2 -a 0 -i 12 -k RTR
r -t 3.742894708 -s 2 -d 2 -p cbr -e 532 -c 2 -a 0 -i 12 -k AGT
+ -t 3.823763101 -s 1 -d -1 -p cbr -e 512 -c 2 -a 0 -i 13 -k AGT 
- -t 3.823763101 -s 1 -d -1 -p cbr -e 512 -c 2 -a 0 -i 13 -k AGT
h -t 3.823763101 -s 1 -d -1 -p cbr -e 512 -c 2 -a 0 -i 13 -k AGT
+ -t 3.823763101 -s 1 -d 2 -p cbr -e 532 -c 2 -a 0 -i 13 -k RTR 
- -t 3.823763101 -s 1 -d 2 -p cbr -e 532 -c 2 -a 0 -i 13 -k RTR
h -t 3.823763101 -s 1 -d 2 -p cbr -e 532 -c 2 -a 0 -i 13 -k RTR
r -t 3.829399435 -s 2 -d 2 -p cbr -e 532 -c 2 -a 0 -i 13 -k AGT
+ -t 3.905936583 -s 1 -d -1 -p cbr -e 512 -c 2 -a 0 -i 14 -k AGT 
- -t 3.905936583 -s 1 -d -1 -p cbr -e 512 -c 2 -a 0 -i 14 -k AGT
h -t 3.905936583 -s 1 -d -1 -p cbr -e 512 -c 2 -a 0 -i 14 -k AGT
+ -t 3.905936583 -s 1 -d 2 -p cbr -e 532 -c 2 -a 0 -i 14 -k RTR 
- -t 3.905936583 -s 1 -d 2 -p cbr -e 532 -c 2 -a 0 -i 14 -k RTR
h -t 3.905936583 -s 1 -d 2 -p cbr -e 532 -c 2 -a 0 -i 14 -k RTR
r -t 3.911852911 -s 2 -d 2 -p cbr -e 532 -c 2 -a 0 -i 14 -k AGT
+ -t 4.036519766 -s 1 -d -1 -p cbr -e 512 -c 2 -a 0 -i 15 -k AGT 
- -t 4.036519766 -s 1 -d -1 -p cbr -e 512 -c 2 -a 0 -i 15 -k AGT
h -t 4.036519766 -s 1 -d -1 -p cbr -e 512 -c 2 -a 0 -i 15 -k AGT
+ -t 4.036519766 -s 1 -d 2 -p cbr -e 532 -c 2 -a 0 -i 15 -k RTR 
- -t 4.036519766 -s 1 -d 2 -p cbr -e 532 -c 2 -a 0 -i 15 -k RTR
h -t 4.036519766 -s 1 -d 2 -p cbr -e 532 -c 2 -a 0 -i 15 -k RTR
r -t 4.042176086 -s 2 -d 2 -p cbr -e 532 -c 2 -a 0 -i 15 -k AGT
n -t 4.062800 -s 7 -x 296.730119 -y 78.032186 -U 1.034355 -V -8.740810 -T 5.027817
+ -t 4.162043313 -s 1 -d -1 -p cbr -e 512 -c 2 -a 0 -i 16 -k AGT 
- -t 4.162043313 -s 1 -d -1 -p cbr -e 512 -c 2 -a 0 -i 16 -k AGT
h -t 4.162043313 -s 1 -d -1 -p cbr -e 512 -c 2 -a 0 -i 16 -k AGT
+ -t 4.162043313 -s 1 -d 2 -p cbr -e 532 -c 2 -a 0 -i 16 -k RTR 
- -t 4.162043313 -s 1 -d 2 -p cbr -e 532 -c 2 -a 0 -i 16 -k RTR
h -t 4.162043313 -s 1 -d 2 -p cbr -e 532 -c 2 -a 0 -i 16 -k RTR
r -t 4.167639626 -s 2 -d 2 -p cbr -e 532 -c 2 -a 0 -i 16 -k AGT
+ -t 4.264118001 -s 1 -d -1 -p cbr -e 512 -c 2 -a 0 -i 17 -k AGT 
- -t 4.264118001 -s 1 -d -1 -p cbr -e 512 -c 2 -a 0 -i 17 -k AGT
h -t 4.264118001 -s 1 -d -1 -p cbr -e 512 -c 2 -a 0 -i 17 -k AGT
+ -t 4.264118001 -s 1 -d 2 -p cbr -e 532 -c 2 -a 0 -i 17 -k RTR 
- -t 4.264118001 -s 1 -d 2 -p cbr -e 532 -c 2 -a 0 -i 17 -k RTR
h -t 4.264118001 -s 1 -d 2 -p cbr -e 532 -c 2 -a 0 -i 17 -k RTR
r -t 4.270134308 -s 2 -d 2 -p cbr -e 532 -c 2 -a 0 -i 17 -k AGT
+ -t 4.315717718 -s 1 -d -1 -p cbr -e 512 -c 2 -a 0 -i 18 -k AGT 
- -t 4.315717718 -s 1 -d -1 -p cbr -e 512 -c 2 -a 0 -i 18 -k AGT
h -t 4.315717718 -s 1 -d -1 -p cbr -e 512 -c 2 -a 0 -i 18 -k AGT
+ -t 4.315717718 -s 1 -d 2 -p cbr -e 532 -c 2 -a 0 -i 18 -k RTR 
- -t 4.315717718 -s 1 -d 2 -p cbr -e 532 -c 2 -a 0 -i 18 -k RTR
h -t 4.315717718 -s 1 -d 2 -p cbr -e 532 -c 2 -a 0 -i 18 -k RTR
r -t 4.321234023 -s 2 -d 2 -p cbr -e 532 -c 2 -a 0 -i 18 -k AGT
+ -t 4.398838920 -s 1 -d -1 -p cbr -e 512 -c 2 -a 0 -i 19 -k AGT 
- -t 4.398838920 -s 1 -d -1 -p cbr -e 512 -c 2 -a 0 -i 19 -k AGT
h -t 4.398838920 -s 1 -d -1 -p cbr -e 512 -c 2 -a 0 -i 19 -k AGT
+ -t 4.398838920 -s 1 -d 2 -p cbr -e 532 -c 2 -a 0 -i 19 -k RTR 
- -t 4.398838920 -s 1 -d 2 -p cbr -e 532 -c 2 -a 0 -i 19 -k RTR
h -t 4.398838920 -s 1 -d 2 -p cbr -e 532 -c 2 -a 0 -i 19 -k RTR
r -t 4.404595220 -s 2 -d 2 -p cbr -e 532 -c 2 -a 0 -i 19 -k AGT
+ -t 4.470254123 -s 1 -d -1 -p cbr -e 512 -c 2 -a 0 -i 20 -k AGT 
- -t 4.470254123 -s 1 -d -1 -p cbr -e 512 -c 2 -a 0 -i 20 -k AGT
h -t 4.470254123 -s 1 -d -1 -p cbr -e 512 -c 2 -a 0 -i 20 -k AGT
+ -t 4.470254123 -s 1 -d 2 -p cbr -e 532 -c 2 -a 0 -i 20 -k RTR 
- -t 4.470254123 -s 1 -d 2 -p cbr -e 532 -c 2 -a 0 -i 20 -k RTR
h -t 4.470254123 -s 1 -d 2 -p cbr -e 532 -c 2 -a 0 -i 20 -k RTR
r -t 4.476130420 -s 2 -d 2 -p cbr -e 532 -c 2 -a 0 -i 20 -k AGT
+ -t 4.561002032 -s 1 -d -1 -p cbr -e 512 -c 2 -a 0 -i 21 -k AGT 
- -t 4.561002032 -s 1 -d -1 -p cbr -e 512 -c 2 -a 0 -i 21 -k AGT
h -t 4.561002032 -s 1 -d -1 -p cbr -e 512 -c 2 -a 0 -i 21 -k AGT
+ -t 4.561002032 -s 1 -d 2 -p cbr -e 532 -c 2 -a 0 -i 21 -k RTR 
- -t 4.561002032 -s 1 -d 2 -p cbr -e 532 -c 2 -a 0 -i 21 -k RTR
h -t 4.561002032 -s 1 -d 2 -p cbr -e 532 -c 2 -a 0 -i 21 -k RTR
r -t 4.566978324 -s 2 -d 2 -p cbr -e 532 -c 2 -a 0 -i 21 -k AGT
+ -t 4.700682118 -s 1 -d -1 -p cbr -e 512 -c 2 -a 0 -i 22 -k AGT 
- -t 4.700682118 -s 1 -d -1 -p cbr -e 512 -c 2 -a 0 -i 22 -k AGT
h -t 4.700682118 -s 1 -d -1 -p cbr -e 512 -c 2 -a 0 -i 22 -k AGT
+ -t 4.700682118 -s 1 -d 2 -p cbr -e 532 -c 2 -a 0 -i 22 -k RTR 
- -t 4.700682118 -s 1 -d 2 -p cbr -e 532 -c 2 -a 0 -i 22 -k RTR
h -t 4.700682118 -s 1 -d 2 -p cbr -e 532 -c 2 -a 0 -i 22 -k RTR