M 0.00000 0 (13.63, 286.65, 0.00), (143.35, 131.07), 1.55
M 0.00000 1 (361.85, 112.32, 0.00), (42.63, 291.83), 4.44
M 0.00000 2 (300.05, 139.03, 0.00), (345.36, 66.80), 6.82
M 0.00000 3 (49.13, 209.55, 0.00), (369.12, 26.65), 2.71
M 0.00000 4 (389.42, 278.92, 0.00), (190.97, 399.68), 1.76
M 0.00000 5 (174.58, 13.72, 0.00), (327.60, 34.26), 7.94
M 0.00000 6 (379.59, 380.45, 0.00), (283.19, 280.04), 9.46
M 0.00000 7 (276.65, 98.17, 0.00), (296.73, 78.03), 7.00
M 0.00000 8 (226.52, 192.90, 0.00), (259.83, 7.83), 8.24
M 0.00000 9 (18.17, 191.52, 0.00), (151.09, 332.05), 9.14
M 0.00000 10 (27.86, 178.26, 0.00), (148.00, 205.76), 1.48
M 0.00000 11 (160.54, 231.16, 0.00), (245.62, 53.72), 8.34
M 0.00000 12 (348.15, 237.53, 0.00), (370.23, 267.05), 6.90
M 0.00000 13 (170.83, 75.75, 0.00), (67.54, 273.75), 2.99
M 0.00000 14 (72.54, 89.91, 0.00), (317.87, 83.09), 2.08
M 0.00000 15 (63.68, 164.05, 0.00), (374.14, 91.05), 4.73
M 0.00000 16 (101.88, 216.86, 0.00), (135.45, 197.47), 0.29
M 0.00000 17 (200.99, 344.60, 0.00), (113.53, 333.33), 1.13
M 0.00000 18 (8.33, 332.70, 0.00), (277.83, 228.86), 4.91
M 0.00000 19 (376.93, 288.94, 0.00), (131.54, 77.14), 3.27
s 0.008749440 _0_ RTR  --- 0 message 32 [0 0 0 0] ------- [0:255 -1:255 32 0] 
r 0.009789594 _18_ RTR  --- 0 message 32 [0 ffffffff 0 800] ------- [0:255 -1:255 32 0] 
r 0.009789723 _3_ RTR  --- 0 message 32 [0 ffffffff 0 800] ------- [0:255 -1:255 32 0] 
r 0.009789757 _9_ RTR  --- 0 message 32 [0 ffffffff 0 800] ------- [0:255 -1:255 32 0] 
r 0.009789804 _10_ RTR  --- 0 message 32 [0 ffffffff 0 800] ------- [0:255 -1:255 32 0] 
r 0.009789815 _16_ RTR  --- 0 message 32 [0 ffffffff 0 800] ------- [0:255 -1:255 32 0] 
r 0.009789881 _15_ RTR  --- 0 message 32 [0 ffffffff 0 800] ------- [0:255 -1:255 32 0] 
r 0.009789964 _11_ RTR  --- 0 message 32 [0 ffffffff 0 800] ------- [0:255 -1:255 32 0] 
r 0.009790094 _17_ RTR  --- 0 message 32 [0 ffffffff 0 800] ------- [0:255 -1:255 32 0] 
r 0.009790125 _14_ RTR  --- 0 message 32 [0 ffffffff 0 800] ------- [0:255 -1:255 32 0] 
r 0.009790215 _8_ RTR  --- 0 message 32 [0 ffffffff 0 800] ------- [0:255 -1:255 32 0] 
s 0.033595809 _2_ RTR  --- 1 message 32 [0 0 0 0] ------- [2:255 -1:255 32 0] 
r 0.034595966 _7_ RTR  --- 1 message 32 [0 ffffffff 2 800] ------- [2:255 -1:255 32 0] 
r 0.034596033 _1_ RTR  --- 1 message 32 [0 ffffffff 2 800] ------- [2:255 -1:255 32 0] 
r 0.034596113 _8_ RTR  --- 1 message 32 [0 ffffffff 2 800] ------- [2:255 -1:255 32 0] 
r 0.034596176 _12_ RTR  --- 1 message 32 [0 ffffffff 2 800] ------- [2:255 -1:255 32 0] 
r 0.034596289 _13_ RTR  --- 1 message 32 [0 ffffffff 2 800] ------- [2:255 -1:255 32 0] 
r 0.034596363 _4_ RTR  --- 1 message 32 [0 ffffffff 2 800] ------- [2:255 -1:255 32 0] 
r 0.034596366 _11_ RTR  --- 1 message 32 [0 ffffffff 2 800] ------- [2:255 -1:255 32 0] 
r 0.034596371 _19_ RTR  --- 1 message 32 [0 ffffffff 2 800] ------- [2:255 -1:255 32 0] 
r 0.034596399 _5_ RTR  --- 1 message 32 [0 ffffffff 2 800] ------- [2:255 -1:255 32 0] 
r 0.034596520 _16_ RTR  --- 1 message 32 [0 ffffffff 2 800] ------- [2:255 -1:255 32 0] 
r 0.034596571 _17_ RTR  --- 1 message 32 [0 ffffffff 2 800] ------- [2:255 -1:255 32 0] 
r 0.034596585 _14_ RTR  --- 1 message 32 [0 ffffffff 2 800] ------- [2:255 -1:255 32 0] 
r 0.034596602 _15_ RTR  --- 1 message 32 [0 ffffffff 2 800] ------- [2:255 -1:255 32 0] 
s 0.093987367 _13_ RTR  --- 2 message 32 [0 0 0 0] ------- [13:255 -1:255 32 0] 
r 0.095167575 _5_ RTR  --- 2 message 32 [0 ffffffff d 800] ------- [13:255 -1:255 32 0] 
r 0.095167697 _14_ RTR  --- 2 message 32 [0 ffffffff d 800] ------- [13:255 -1:255 32 0] 
r 0.095167730 _7_ RTR  --- 2 message 32 [0 ffffffff d 800] ------- [13:255 -1:255 32 0] 
r 0.095167797 _8_ RTR  --- 2 message 32 [0 ffffffff d 800] ------- [13:255 -1:255 32 0] 
r 0.095167828 _15_ RTR  --- 2 message 32 [0 ffffffff d 800] ------- [13:255 -1:255 32 0] 
r 0.095167847 _2_ RTR  --- 2 message 32 [0 ffffffff d 800] ------- [13:255 -1:255 32 0] 
r 0.095167883 _11_ RTR  --- 2 message 32 [0 ffffffff d 800] ------- [13:255 -1:255 32 0] 
r 0.095167890 _16_ RTR  --- 2 message 32 [0 ffffffff d 800] ------- [13:255 -1:255 32 0] 
r 0.095167953 _10_ RTR  --- 2 message 32 [0 ffffffff d 800] ------- [13:255 -1:255 32 0] 
r 0.095167969 _3_ RTR  --- 2 message 32 [0 ffffffff d 800] ------- [13:255 -1:255 32 0] 
r 0.095168005 _9_ RTR  --- 2 message 32 [0 ffffffff d 800] ------- [13:255 -1:255 32 0] 
r 0.095168015 _1_ RTR  --- 2 message 32 [0 ffffffff d 800] ------- [13:255 -1:255 32 0] 
r 0.095168169 _12_ RTR  --- 2 message 32 [0 ffffffff d 800] ------- [13:255 -1:255 32 0] 
s 0.183018832 _3_ RTR  --- 3 message 32 [0 0 0 0] ------- [3:255 -1:255 32 0] 
r 0.183978947 _9_ RTR  --- 3 message 32 [0 ffffffff 3 800] ------- [3:255 -1:255 32 0] 
r 0.183978958 _10_ RTR  --- 3 message 32 [0 ffffffff 3 800] ------- [3:255 -1:255 32 0] 
r 0.183978992 _15_ RTR  --- 3 message 32 [0 ffffffff 3 800] ------- [3:255 -1:255 32 0] 
r 0.183979008 _16_ RTR  --- 3 message 32 [0 ffffffff 3 800] ------- [3:255 -1:255 32 0] 
r 0.183979115 _0_ RTR  --- 3 message 32 [0 ffffffff 3 800] ------- [3:255 -1:255 32 0] 
r 0.183979210 _11_ RTR  --- 3 message 32 [0 ffffffff 3 800] ------- [3:255 -1:255 32 0] 
r 0.183979238 _14_ RTR  --- 3 message 32 [0 ffffffff 3 800] ------- [3:255 -1:255 32 0] 
r 0.183979264 _18_ RTR  --- 3 message 32 [0 ffffffff 3 800] ------- [3:255 -1:255 32 0] 
r 0.183979426 _8_ RTR  --- 3 message 32 [0 ffffffff 3 800] ------- [3:255 -1:255 32 0] 
r 0.183979432 _13_ RTR  --- 3 message 32 [0 ffffffff 3 800] ------- [3:255 -1:255 32 0] 
r 0.183979508 _17_ RTR  --- 3 message 32 [0 ffffffff 3 800] ------- [3:255 -1:255 32 0] 
r 0.183979608 _5_ RTR  --- 3 message 32 [0 ffffffff 3 800] ------- [3:255 -1:255 32 0] 
s 0.189369694 _19_ RTR  --- 4 message 32 [0 0 0 0] ------- [19:255 -1:255 32 0] 
r 0.190289746 _4_ RTR  --- 4 message 32 [0 ffffffff 13 800] ------- [19:255 -1:255 32 0] 
r 0.190289884 _12_ RTR  --- 4 message 32 [0 ffffffff 13 800] ------- [19:255 -1:255 32 0] 
r 0.190289996 _6_ RTR  --- 4 message 32 [0 ffffffff 13 800] ------- [19:255 -1:255 32 0] 
r 0.190290256 _2_ RTR  --- 4 message 32 [0 ffffffff 13 800] ------- [19:255 -1:255 32 0] 
r 0.190290282 _1_ RTR  --- 4 message 32 [0 ffffffff 13 800] ------- [19:255 -1:255 32 0] 
r 0.190290289 _8_ RTR  --- 4 message 32 [0 ffffffff 13 800] ------- [19:255 -1:255 32 0] 
r 0.190290309 _17_ RTR  --- 4 message 32 [0 ffffffff 13 800] ------- [19:255 -1:255 32 0] 
r 0.190290412 _7_ RTR  --- 4 message 32 [0 ffffffff 13 800] ------- [19:255 -1:255 32 0] 
r 0.190290438 _11_ RTR  --- 4 message 32 [0 ffffffff 13 800] ------- [19:255 -1:255 32 0] 
s 0.237079147 _15_ RTR  --- 5 message 32 [0 0 0 0] ------- [15:255 -1:255 32 0] 
r 0.238479278 _10_ RTR  --- 5 message 32 [0 ffffffff f 800] ------- [15:255 -1:255 32 0] 
r 0.238479306 _3_ RTR  --- 5 message 32 [0 ffffffff f 800] ------- [15:255 -1:255 32 0] 
r 0.238479326 _9_ RTR  --- 5 message 32 [0 ffffffff f 800] ------- [15:255 -1:255 32 0] 
r 0.238479363 _16_ RTR  --- 5 message 32 [0 ffffffff f 800] ------- [15:255 -1:255 32 0] 
r 0.238479395 _14_ RTR  --- 5 message 32 [0 ffffffff f 800] ------- [15:255 -1:255 32 0] 
r 0.238479536 _11_ RTR  --- 5 message 32 [0 ffffffff f 800] ------- [15:255 -1:255 32 0] 
r 0.238479589 _0_ RTR  --- 5 message 32 [0 ffffffff f 800] ------- [15:255 -1:255 32 0] 
r 0.238479604 _13_ RTR  --- 5 message 32 [0 ffffffff f 800] ------- [15:255 -1:255 32 0] 
r 0.238479695 _8_ RTR  --- 5 message 32 [0 ffffffff f 800] ------- [15:255 -1:255 32 0] 
r 0.238479738 _18_ RTR  --- 5 message 32 [0 ffffffff f 800] ------- [15:255 -1:255 32 0] 
r 0.238479770 _5_ RTR  --- 5 message 32 [0 ffffffff f 800] ------- [15:255 -1:255 32 0] 
r 0.238479891 _7_ RTR  --- 5 message 32 [0 ffffffff f 800] ------- [15:255 -1:255 32 0] 
r 0.238479901 _17_ RTR  --- 5 message 32 [0 ffffffff f 800] ------- [15:255 -1:255 32 0] 
r 0.238479939 _2_ RTR  --- 5 message 32 [0 ffffffff f 800] ------- [15:255 -1:255 32 0] 
s 0.328398897 _12_ RTR  --- 6 message 32 [0 0 0 0] ------- [12:255 -1:255 32 0] 
r 0.329719082 _19_ RTR  --- 6 message 32 [0 ffffffff c 800] ------- [12:255 -1:255 32 0] 
r 0.329719083 _4_ RTR  --- 6 message 32 [0 ffffffff c 800] ------- [12:255 -1:255 32 0] 
r 0.329719273 _2_ RTR  --- 6 message 32 [0 ffffffff c 800] ------- [12:255 -1:255 32 0] 
r 0.329719319 _1_ RTR  --- 6 message 32 [0 ffffffff c 800] ------- [12:255 -1:255 32 0] 
r 0.329719337 _8_ RTR  --- 6 message 32 [0 ffffffff c 800] ------- [12:255 -1:255 32 0] 
r 0.329719369 _6_ RTR  --- 6 message 32 [0 ffffffff c 800] ------- [12:255 -1:255 32 0] 
r 0.329719429 _7_ RTR  --- 6 message 32 [0 ffffffff c 800] ------- [12:255 -1:255 32 0] 
r 0.329719504 _17_ RTR  --- 6 message 32 [0 ffffffff c 800] ------- [12:255 -1:255 32 0] 
r 0.329719524 _11_ RTR  --- 6 message 32 [0 ffffffff c 800] ------- [12:255 -1:255 32 0] 
r 0.329719703 _13_ RTR  --- 6 message 32 [0 ffffffff c 800] ------- [12:255 -1:255 32 0] 
r 0.329719725 _16_ RTR  --- 6 message 32 [0 ffffffff c 800] ------- [12:255 -1:255 32 0] 
s 0.356296747 _18_ RTR  --- 7 message 32 [0 0 0 0] ------- [18:255 -1:255 32 0] 
r 0.357596900 _0_ RTR  --- 7 message 32 [0 ffffffff 12 800] ------- [18:255 -1:255 32 0] 
r 0.357597178 _3_ RTR  --- 7 message 32 [0 ffffffff 12 800] ------- [18:255 -1:255 32 0] 
r 0.357597208 _9_ RTR  --- 7 message 32 [0 ffffffff 12 800] ------- [18:255 -1:255 32 0] 
r 0.357597238 _16_ RTR  --- 7 message 32 [0 ffffffff 12 800] ------- [18:255 -1:255 32 0] 
r 0.357597263 _10_ RTR  --- 7 message 32 [0 ffffffff 12 800] ------- [18:255 -1:255 32 0] 
r 0.357597337 _15_ RTR  --- 7 message 32 [0 ffffffff 12 800] ------- [18:255 -1:255 32 0] 
r 0.357597359 _11_ RTR  --- 7 message 32 [0 ffffffff 12 800] ------- [18:255 -1:255 32 0] 
r 0.357597383 _17_ RTR  --- 7 message 32 [0 ffffffff 12 800] ------- [18:255 -1:255 32 0] 
s 0.477970060 _8_ RTR  --- 8 message 32 [0 0 0 0] ------- [8:255 -1:255 32 0] 
r 0.478950312 _11_ RTR  --- 8 message 32 [0 ffffffff 8 800] ------- [8:255 -1:255 32 0] 
r 0.478950365 _2_ RTR  --- 8 message 32 [0 ffffffff 8 800] ------- [8:255 -1:255 32 0] 
r 0.478950416 _7_ RTR  --- 8 message 32 [0 ffffffff 8 800] ------- [8:255 -1:255 32 0] 
r 0.478950479 _13_ RTR  --- 8 message 32 [0 ffffffff 8 800] ------- [8:255 -1:255 32 0] 
r 0.478950488 _16_ RTR  --- 8 message 32 [0 ffffffff 8 800] ------- [8:255 -1:255 32 0] 
r 0.478950504 _12_ RTR  --- 8 message 32 [0 ffffffff 8 800] ------- [8:255 -1:255 32 0] 
r 0.478950570 _1_ RTR  --- 8 message 32 [0 ffffffff 8 800] ------- [8:255 -1:255 32 0] 
r 0.478950586 _17_ RTR  --- 8 message 32 [0 ffffffff 8 800] ------- [8:255 -1:255 32 0] 
r 0.478950605 _15_ RTR  --- 8 message 32 [0 ffffffff 8 800] ------- [8:255 -1:255 32 0] 
r 0.478950654 _3_ RTR  --- 8 message 32 [0 ffffffff 8 800] ------- [8:255 -1:255 32 0] 
r 0.478950655 _19_ RTR  --- 8 message 32 [0 ffffffff 8 800] ------- [8:255 -1:255 32 0] 
r 0.478950665 _5_ RTR  --- 8 message 32 [0 ffffffff 8 800] ------- [8:255 -1:255 32 0] 
r 0.478950670 _14_ RTR  --- 8 message 32 [0 ffffffff 8 800] ------- [8:255 -1:255 32 0] 
r 0.478950677 _4_ RTR  --- 8 message 32 [0 ffffffff 8 800] ------- [8:255 -1:255 32 0] 
r 0.478950724 _10_ RTR  --- 8 message 32 [0 ffffffff 8 800] ------- [8:255 -1:255 32 0] 
r 0.478950748 _9_ RTR  --- 8 message 32 [0 ffffffff 8 800] ------- [8:255 -1:255 32 0] 
r 0.478950841 _0_ RTR  --- 8 message 32 [0 ffffffff 8 800] ------- [8:255 -1:255 32 0] 
r 0.478950861 _6_ RTR  --- 8 message 32 [0 ffffffff 8 800] ------- [8:255 -1:255 32 0] 
s 0.618433690 _10_ RTR  --- 9 message 32 [0 0 0 0] ------- [10:255 -1:255 32 0] 
r 0.619253752 _9_ RTR  --- 9 message 32 [0 ffffffff a 800] ------- [10:255 -1:255 32 0] 
r 0.619253815 _3_ RTR  --- 9 message 32 [0 ffffffff a 800] ------- [10:255 -1:255 32 0] 
r 0.619253826 _15_ RTR  --- 9 message 32 [0 ffffffff a 800] ------- [10:255 -1:255 32 0] 
r 0.619253966 _16_ RTR  --- 9 message 32 [0 ffffffff a 800] ------- [10:255 -1:255 32 0] 
r 0.619254022 _14_ RTR  --- 9 message 32 [0 ffffffff a 800] ------- [10:255 -1:255 32 0] 
r 0.619254052 _0_ RTR  --- 9 message 32 [0 ffffffff a 800] ------- [10:255 -1:255 32 0] 
r 0.619254165 _11_ RTR  --- 9 message 32 [0 ffffffff a 800] ------- [10:255 -1:255 32 0] 
r 0.619254204 _18_ RTR  --- 9 message 32 [0 ffffffff a 800] ------- [10:255 -1:255 32 0] 
r 0.619254269 _13_ RTR  --- 9 message 32 [0 ffffffff a 800] ------- [10:255 -1:255 32 0] 
r 0.619254353 _8_ RTR  --- 9 message 32 [0 ffffffff a 800] ------- [10:255 -1:255 32 0] 
r 0.619254433 _5_ RTR  --- 9 message 32 [0 ffffffff a 800] ------- [10:255 -1:255 32 0] 
r 0.619254486 _17_ RTR  --- 9 message 32 [0 ffffffff a 800] ------- [10:255 -1:255 32 0] 
s 0.635391705 _6_ RTR  --- 10 message 32 [0 0 0 0] ------- [6:255 -1:255 32 0] 
r 0.636232000 _19_ RTR  --- 10 message 32 [0 ffffffff 6 800] ------- [6:255 -1:255 32 0] 
r 0.636232030 _4_ RTR  --- 10 message 32 [0 ffffffff 6 800] ------- [6:255 -1:255 32 0] 
r 0.636232163 _12_ RTR  --- 10 message 32 [0 ffffffff 6 800] ------- [6:255 -1:255 32 0] 
r 0.636232298 _17_ RTR  --- 10 message 32 [0 ffffffff 6 800] ------- [6:255 -1:255 32 0] 
r 0.636232504 _8_ RTR  --- 10 message 32 [0 ffffffff 6 800] ------- [6:255 -1:255 32 0] 
s 0.849100751 _17_ RTR  --- 11 message 32 [0 0 0 0] ------- [17:255 -1:255 32 0] 
r 0.850221168 _11_ RTR  --- 11 message 32 [0 ffffffff 11 800] ------- [17:255 -1:255 32 0] 
r 0.850221287 _8_ RTR  --- 11 message 32 [0 ffffffff 11 800] ------- [17:255 -1:255 32 0] 
r 0.850221288 _16_ RTR  --- 11 message 32 [0 ffffffff 11 800] ------- [17:255 -1:255 32 0] 
r 0.850221340 _6_ RTR  --- 11 message 32 [0 ffffffff 11 800] ------- [17:255 -1:255 32 0] 
r 0.850221361 _12_ RTR  --- 11 message 32 [0 ffffffff 11 800] ------- [17:255 -1:255 32 0] 
r 0.850221364 _19_ RTR  --- 11 message 32 [0 ffffffff 11 800] ------- [17:255 -1:255 32 0] 
r 0.850221379 _18_ RTR  --- 11 message 32 [0 ffffffff 11 800] ------- [17:255 -1:255 32 0] 
r 0.850221400 _0_ RTR  --- 11 message 32 [0 ffffffff 11 800] ------- [17:255 -1:255 32 0] 
r 0.850221414 _4_ RTR  --- 11 message 32 [0 ffffffff 11 800] ------- [17:255 -1:255 32 0] 
r 0.850221423 _3_ RTR  --- 11 message 32 [0 ffffffff 11 800] ------- [17:255 -1:255 32 0] 
r 0.850221500 _15_ RTR  --- 11 message 32 [0 ffffffff 11 800] ------- [17:255 -1:255 32 0] 
r 0.850221517 _9_ RTR  --- 11 message 32 [0 ffffffff 11 800] ------- [17:255 -1:255 32 0] 
r 0.850221532 _2_ RTR  --- 11 message 32 [0 ffffffff 11 800] ------- [17:255 -1:255 32 0] 
r 0.850221545 _10_ RTR  --- 11 message 32 [0 ffffffff 11 800] ------- [17:255 -1:255 32 0] 
s 0.882848098 _4_ RTR  --- 12 message 32 [0 0 0 0] ------- [4:255 -1:255 32 0] 
r 0.883868149 _19_ RTR  --- 12 message 32 [0 ffffffff 4 800] ------- [4:255 -1:255 32 0] 
r 0.883868272 _12_ RTR  --- 12 message 32 [0 ffffffff 4 800] ------- [4:255 -1:255 32 0] 
r 0.883868417 _6_ RTR  --- 12 message 32 [0 ffffffff 4 800] ------- [4:255 -1:255 32 0] 
r 0.883868659 _1_ RTR  --- 12 message 32 [0 ffffffff 4 800] ------- [4:255 -1:255 32 0] 
r 0.883868660 _2_ RTR  --- 12 message 32 [0 ffffffff 4 800] ------- [4:255 -1:255 32 0] 
r 0.883868718 _8_ RTR  --- 12 message 32 [0 ffffffff 4 800] ------- [4:255 -1:255 32 0] 
r 0.883868761 _17_ RTR  --- 12 message 32 [0 ffffffff 4 800] ------- [4:255 -1:255 32 0] 
r 0.883868813 _7_ RTR  --- 12 message 32 [0 ffffffff 4 800] ------- [4:255 -1:255 32 0] 
r 0.883868868 _11_ RTR  --- 12 message 32 [0 ffffffff 4 800] ------- [4:255 -1:255 32 0] 
s 1.115973632 _1_ RTR  --- 13 message 32 [0 0 0 0] ------- [1:255 -1:255 32 0] 
r 1.116993820 _2_ RTR  --- 13 message 32 [0 ffffffff 1 800] ------- [1:255 -1:255 32 0] 
r 1.116993894 _7_ RTR  --- 13 message 32 [0 ffffffff 1 800] ------- [1:255 -1:255 32 0] 
r 1.116994063 _12_ RTR  --- 13 message 32 [0 ffffffff 1 800] ------- [1:255 -1:255 32 0] 
r 1.116994121 _8_ RTR  --- 13 message 32 [0 ffffffff 1 800] ------- [1:255 -1:255 32 0] 
r 1.116994192 _4_ RTR  --- 13 message 32 [0 ffffffff 1 800] ------- [1:255 -1:255 32 0] 
r 1.116994208 _19_ RTR  --- 13 message 32 [0 ffffffff 1 800] ------- [1:255 -1:255 32 0] 
r 1.116994271 _13_ RTR  --- 13 message 32 [0 ffffffff 1 800] ------- [1:255 -1:255 32 0] 
r 1.116994302 _5_ RTR  --- 13 message 32 [0 ffffffff 1 800] ------- [1:255 -1:255 32 0] 
r 1.116994370 _11_ RTR  --- 13 message 32 [0 ffffffff 1 800] ------- [1:255 -1:255 32 0] 
s 1.285010704 _9_ RTR  --- 14 message 32 [0 0 0 0] ------- [9:255 -1:255 32 0] 
s 1.285996443 _14_ RTR  --- 15 message 32 [0 0 0 0] ------- [14:255 -1:255 32 0] 
r 1.286410776 _10_ RTR  --- 14 message 32 [0 ffffffff 9 800] ------- [9:255 -1:255 32 0] 
r 1.286410794 _3_ RTR  --- 14 message 32 [0 ffffffff 9 800] ------- [9:255 -1:255 32 0] 
r 1.286410895 _15_ RTR  --- 14 message 32 [0 ffffffff 9 800] ------- [9:255 -1:255 32 0] 
r 1.286410963 _16_ RTR  --- 14 message 32 [0 ffffffff 9 800] ------- [9:255 -1:255 32 0] 
r 1.286410990 _0_ RTR  --- 14 message 32 [0 ffffffff 9 800] ------- [9:255 -1:255 32 0] 
r 1.286411106 _14_ RTR  --- 14 message 32 [0 ffffffff 9 800] ------- [9:255 -1:255 32 0] 
r 1.286411141 _18_ RTR  --- 14 message 32 [0 ffffffff 9 800] ------- [9:255 -1:255 32 0] 
r 1.286411173 _11_ RTR  --- 14 message 32 [0 ffffffff 9 800] ------- [9:255 -1:255 32 0] 
r 1.286411328 _13_ RTR  --- 14 message 32 [0 ffffffff 9 800] ------- [9:255 -1:255 32 0] 
r 1.286411381 _8_ RTR  --- 14 message 32 [0 ffffffff 9 800] ------- [9:255 -1:255 32 0] 
r 1.286411456 _17_ RTR  --- 14 message 32 [0 ffffffff 9 800] ------- [9:255 -1:255 32 0] 
r 1.286411516 _5_ RTR  --- 14 message 32 [0 ffffffff 9 800] ------- [9:255 -1:255 32 0] 
r 1.287301350 _15_ RTR  --- 15 message 32 [0 ffffffff e 800] ------- [14:255 -1:255 32 0] 
r 1.287301421 _13_ RTR  --- 15 message 32 [0 ffffffff e 800] ------- [14:255 -1:255 32 0] 
r 1.287301439 _10_ RTR  --- 15 message 32 [0 ffffffff e 800] ------- [14:255 -1:255 32 0] 
r 1.287301507 _3_ RTR  --- 15 message 32 [0 ffffffff e 800] ------- [14:255 -1:255 32 0] 
r 1.287301508 _9_ RTR  --- 15 message 32 [0 ffffffff e 800] ------- [14:255 -1:255 32 0] 
r 1.287301539 _16_ RTR  --- 15 message 32 [0 ffffffff e 800] ------- [14:255 -1:255 32 0] 
r 1.287301548 _5_ RTR  --- 15 message 32 [0 ffffffff e 800] ------- [14:255 -1:255 32 0] 
r 1.287301638 _11_ RTR  --- 15 message 32 [0 ffffffff e 800] ------- [14:255 -1:255 32 0] 
r 1.287301703 _8_ RTR  --- 15 message 32 [0 ffffffff e 800] ------- [14:255 -1:255 32 0] 
r 1.287301788 _0_ RTR  --- 15 message 32 [0 ffffffff e 800] ------- [14:255 -1:255 32 0] 
r 1.287301799 _7_ RTR  --- 15 message 32 [0 ffffffff e 800] ------- [14:255 -1:255 32 0] 
r 1.287301884 _2_ RTR  --- 15 message 32 [0 ffffffff e 800] ------- [14:255 -1:255 32 0] 
r 1.287301934 _18_ RTR  --- 15 message 32 [0 ffffffff e 800] ------- [14:255 -1:255 32 0] 
s 1.606148657 _5_ RTR  --- 16 message 32 [0 0 0 0] ------- [5:255 -1:255 32 0] 
r 1.607268882 _13_ RTR  --- 16 message 32 [0 ffffffff 5 800] ------- [5:255 -1:255 32 0] 
r 1.607269067 _7_ RTR  --- 16 message 32 [0 ffffffff 5 800] ------- [5:255 -1:255 32 0] 
r 1.607269104 _14_ RTR  --- 16 message 32 [0 ffffffff 5 800] ------- [5:255 -1:255 32 0] 
r 1.607269207 _2_ RTR  --- 16 message 32 [0 ffffffff 5 800] ------- [5:255 -1:255 32 0] 
r 1.607269223 _8_ RTR  --- 16 message 32 [0 ffffffff 5 800] ------- [5:255 -1:255 32 0] 
r 1.607269282 _15_ RTR  --- 16 message 32 [0 ffffffff 5 800] ------- [5:255 -1:255 32 0] 
r 1.607269311 _1_ RTR  --- 16 message 32 [0 ffffffff 5 800] ------- [5:255 -1:255 32 0] 
r 1.607269340 _11_ RTR  --- 16 message 32 [0 ffffffff 5 800] ------- [5:255 -1:255 32 0] 
r 1.607269385 _16_ RTR  --- 16 message 32 [0 ffffffff 5 800] ------- [5:255 -1:255 32 0] 
r 1.607269413 _10_ RTR  --- 16 message 32 [0 ffffffff 5 800] ------- [5:255 -1:255 32 0] 
r 1.607269438 _3_ RTR  --- 16 message 32 [0 ffffffff 5 800] ------- [5:255 -1:255 32 0] 
r 1.607269475 _9_ RTR  --- 16 message 32 [0 ffffffff 5 800] ------- [5:255 -1:255 32 0] 
s 1.638413333 _7_ RTR  --- 17 message 32 [0 0 0 0] ------- [7:255 -1:255 32 0] 
r 1.639813483 _2_ RTR  --- 17 message 32 [0 ffffffff 7 800] ------- [7:255 -1:255 32 0] 
r 1.639813584 _1_ RTR  --- 17 message 32 [0 ffffffff 7 800] ------- [7:255 -1:255 32 0] 
r 1.639813685 _8_ RTR  --- 17 message 32 [0 ffffffff 7 800] ------- [7:255 -1:255 32 0] 
r 1.639813722 _13_ RTR  --- 17 message 32 [0 ffffffff 7 800] ------- [7:255 -1:255 32 0] 
r 1.639813742 _5_ RTR  --- 17 message 32 [0 ffffffff 7 800] ------- [7:255 -1:255 32 0] 
r 1.639813905 _12_ RTR  --- 17 message 32 [0 ffffffff 7 800] ------- [7:255 -1:255 32 0] 
r 1.639813916 _11_ RTR  --- 17 message 32 [0 ffffffff 7 800] ------- [7:255 -1:255 32 0] 
r 1.639814029 _14_ RTR  --- 17 message 32 [0 ffffffff 7 800] ------- [7:255 -1:255 32 0] 
r 1.639814048 _19_ RTR  --- 17 message 32 [0 ffffffff 7 800] ------- [7:255 -1:255 32 0] 
r 1.639814053 _4_ RTR  --- 17 message 32 [0 ffffffff 7 800] ------- [7:255 -1:255 32 0] 
r 1.639814073 _16_ RTR  --- 17 message 32 [0 ffffffff 7 800] ------- [7:255 -1:255 32 0] 
r 1.639814084 _15_ RTR  --- 17 message 32 [0 ffffffff 7 800] ------- [7:255 -1:255 32 0] 
s 1.675969218 _11_ RTR  --- 18 message 32 [0 0 0 0] ------- [11:255 -1:255 32 0] 
r 1.677229432 _16_ RTR  --- 18 message 32 [0 ffffffff b 800] ------- [11:255 -1:255 32 0] 
r 1.677229464 _8_ RTR  --- 18 message 32 [0 ffffffff b 800] ------- [11:255 -1:255 32 0] 
r 1.677229587 _15_ RTR  --- 18 message 32 [0 ffffffff b 800] ------- [11:255 -1:255 32 0] 
r 1.677229598 _3_ RTR  --- 18 message 32 [0 ffffffff b 800] ------- [11:255 -1:255 32 0] 
r 1.677229651 _17_ RTR  --- 18 message 32 [0 ffffffff b 800] ------- [11:255 -1:255 32 0] 
r 1.677229679 _13_ RTR  --- 18 message 32 [0 ffffffff b 800] ------- [11:255 -1:255 32 0] 
r 1.677229681 _9_ RTR  --- 18 message 32 [0 ffffffff b 800] ------- [11:255 -1:255 32 0] 
r 1.677229691 _10_ RTR  --- 18 message 32 [0 ffffffff b 800] ------- [11:255 -1:255 32 0] 
r 1.677229743 _14_ RTR  --- 18 message 32 [0 ffffffff b 800] ------- [11:255 -1:255 32 0] 
r 1.677229768 _0_ RTR  --- 18 message 32 [0 ffffffff b 800] ------- [11:255 -1:255 32 0] 
r 1.677229770 _2_ RTR  --- 18 message 32 [0 ffffffff b 800] ------- [11:255 -1:255 32 0] 
r 1.677229801 _7_ RTR  --- 18 message 32 [0 ffffffff b 800] ------- [11:255 -1:255 32 0] 
r 1.677229842 _18_ RTR  --- 18 message 32 [0 ffffffff b 800] ------- [11:255 -1:255 32 0] 
r 1.677229853 _12_ RTR  --- 18 message 32 [0 ffffffff b 800] ------- [11:255 -1:255 32 0] 
r 1.677229899 _5_ RTR  --- 18 message 32 [0 ffffffff b 800] ------- [11:255 -1:255 32 0] 
r 1.677229934 _1_ RTR  --- 18 message 32 [0 ffffffff b 800] ------- [11:255 -1:255 32 0] 
r 1.677229941 _19_ RTR  --- 18 message 32 [0 ffffffff b 800] ------- [11:255 -1:255 32 0] 
r 1.677229981 _4_ RTR  --- 18 message 32 [0 ffffffff b 800] ------- [11:255 -1:255 32 0] 
s 1.723107868 _16_ RTR  --- 19 message 32 [0 0 0 0] ------- [16:255 -1:255 32 0] 
r 1.724148035 _3_ RTR  --- 19 message 32 [0 ffffffff 10 800] ------- [16:255 -1:255 32 0] 
r 1.724148076 _15_ RTR  --- 19 message 32 [0 ffffffff 10 800] ------- [16:255 -1:255 32 0] 
r 1.724148083 _11_ RTR  --- 19 message 32 [0 ffffffff 10 800] ------- [16:255 -1:255 32 0] 
r 1.724148117 _9_ RTR  --- 19 message 32 [0 ffffffff 10 800] ------- [16:255 -1:255 32 0] 
r 1.724148139 _10_ RTR  --- 19 message 32 [0 ffffffff 10 800] ------- [16:255 -1:255 32 0] 
r 1.724148236 _0_ RTR  --- 19 message 32 [0 ffffffff 10 800] ------- [16:255 -1:255 32 0] 
r 1.724148300 _14_ RTR  --- 19 message 32 [0 ffffffff 10 800] ------- [16:255 -1:255 32 0] 
r 1.724148309 _8_ RTR  --- 19 message 32 [0 ffffffff 10 800] ------- [16:255 -1:255 32 0] 
r 1.724148342 _18_ RTR  --- 19 message 32 [0 ffffffff 10 800] ------- [16:255 -1:255 32 0] 
r 1.724148373 _13_ RTR  --- 19 message 32 [0 ffffffff 10 800] ------- [16:255 -1:255 32 0] 
r 1.724148402 _17_ RTR  --- 19 message 32 [0 ffffffff 10 800] ------- [16:255 -1:255 32 0] 
r 1.724148597 _5_ RTR  --- 19 message 32 [0 ffffffff 10 800] ------- [16:255 -1:255 32 0] 
r 1.724148608 _2_ RTR  --- 19 message 32 [0 ffffffff 10 800] ------- [16:255 -1:255 32 0] 
r 1.724148610 _7_ RTR  --- 19 message 32 [0 ffffffff 10 800] ------- [16:255 -1:255 32 0] 
s 2.556838879 _1_ AGT  --- 20 cbr 512 [0 0 0 0] ------- [1:0 2:0 32 0] [0] 0 1
r 2.556838879 _1_ RTR  --- 20 cbr 512 [0 0 0 0] ------- [1:0 2:0 32 0] [0] 0 1
s 2.556838879 _1_ RTR  --- 20 cbr 532 [0 0 0 0] ------- [1:0 2:0 32 2] [0] 0 1
r 2.566066884 _2_ AGT  --- 20 cbr 532 [13a 2 1 800] ------- [1:0 2:0 32 2] [0] 1 1
s 2.694964626 _1_ AGT  --- 21 cbr 512 [0 0 0 0] ------- [1:0 2:0 32 0] [1] 0 1
r 2.694964626 _1_ RTR  --- 21 cbr 512 [0 0 0 0] ------- [1:0 2:0 32 0] [1] 0 1
s 2.694964626 _1_ RTR  --- 21 cbr 532 [0 0 0 0] ------- [1:0 2:0 32 2] [1] 0 1
r 2.700721046 _2_ AGT  --- 21 cbr 532 [13a 2 1 800] ------- [1:0 2:0 32 2] [1] 1 1
s 2.823927464 _1_ AGT  --- 22 cbr 512 [0 0 0 0] ------- [1:0 2:0 32 0] [2] 0 1
r 2.823927464 _1_ RTR  --- 22 cbr 512 [0 0 0 0] ------- [1:0 2:0 32 0] [2] 0 1
s 2.823927464 _1_ RTR  --- 22 cbr 532 [0 0 0 0] ------- [1:0 2:0 32 2] [2] 0 1
r 2.829483872 _2_ AGT  --- 22 cbr 532 [13a 2 1 800] ------- [1:0 2:0 32 2] [2] 1 1
s 2.894688976 _1_ AGT  --- 23 cbr 512 [0 0 0 0] ------- [1:0 2:0 32 0] [3] 0 1
r 2.894688976 _1_ RTR  --- 23 cbr 512 [0 0 0 0] ------- [1:0 2:0 32 0] [3] 0 1
s 2.894688976 _1_ RTR  --- 23 cbr 532 [0 0 0 0] ------- [1:0 2:0 32 2] [3] 0 1
r 2.900605379 _2_ AGT  --- 23 cbr 532 [13a 2 1 800] ------- [1:0 2:0 32 2] [3] 1 1
s 2.988411194 _1_ AGT  --- 24 cbr 512 [0 0 0 0] ------- [1:0 2:0 32 0] [4] 0 1
r 2.988411194 _1_ RTR  --- 24 cbr 512 [0 0 0 0] ------- [1:0 2:0 32 0] [4] 0 1
s 2.988411194 _1_ RTR  --- 24 cbr 532 [0 0 0 0] ------- [1:0 2:0 32 2] [4] 0 1
r 2.993967589 _2_ AGT  --- 24 cbr 532 [13a 2 1 800] ------- [1:0 2:0 32 2] [4] 1 1
s 3.128352657 _1_ AGT  --- 25 cbr 512 [0 0 0 0] ------- [1:0 2:0 32 0] [5] 0 1
r 3.128352657 _1_ RTR  --- 25 cbr 512 [0 0 0 0] ------- [1:0 2:0 32 0] [5] 0 1
s 3.128352657 _1_ RTR  --- 25 cbr 532 [0 0 0 0] ------- [1:0 2:0 32 2] [5] 0 1
r 3.133869041 _2_ AGT  --- 25 cbr 532 [13a 2 1 800] ------- [1:0 2:0 32 2] [5] 1 1
s 3.220645896 _1_ AGT  --- 26 cbr 512 [0 0 0 0] ------- [1:0 2:0 32 0] [6] 0 1
r 3.220645896 _1_ RTR  --- 26 cbr 512 [0 0 0 0] ------- [1:0 2:0 32 0] [6] 0 1
s 3.220645896 _1_ RTR  --- 26 cbr 532 [0 0 0 0] ------- [1:0 2:0 32 2] [6] 0 1
r 3.226522273 _2_ AGT  --- 26 cbr 532 [13a 2 1 800] ------- [1:0 2:0 32 2] [6] 1 1
s 3.319123306 _1_ AGT  --- 27 cbr 512 [0 0 0 0] ------- [1:0 2:0 32 0] [7] 0 1
r 3.319123306 _1_ RTR  --- 27 cbr 512 [0 0 0 0] ------- [1:0 2:0 32 0] [7] 0 1
s 3.319123306 _1_ RTR  --- 27 cbr 532 [0 0 0 0] ------- [1:0 2:0 32 2] [7] 0 1
r 3.324799675 _2_ AGT  --- 27 cbr 532 [13a 2 1 800] ------- [1:0 2:0 32 2] [7] 1 1
s 3.454201586 _1_ AGT  --- 28 cbr 512 [0 0 0 0] ------- [1:0 2:0 32 0] [8] 0 1
r 3.454201586 _1_ RTR  --- 28 cbr 512 [0 0 0 0] ------- [1:0 2:0 32 0] [8] 0 1
s 3.454201586 _1_ RTR  --- 28 cbr 532 [0 0 0 0] ------- [1:0 2:0 32 2] [8] 0 1
r 3.459837945 _2_ AGT  --- 28 cbr 532 [13a 2 1 800] ------- [1:0 2:0 32 2] [8] 1 1
s 3.510650488 _1_ AGT  --- 29 cbr 512 [0 0 0 0] ------- [1:0 2:0 32 0] [9] 0 1
r 3.510650488 _1_ RTR  --- 29 cbr 512 [0 0 0 0] ------- [1:0 2:0 32 0] [9] 0 1
s 3.510650488 _1_ RTR  --- 29 cbr 532 [0 0 0 0] ------- [1:0 2:0 32 2] [9] 0 1
r 3.516246843 _2_ AGT  --- 29 cbr 532 [13a 2 1 800] ------- [1:0 2:0 32 2] [9] 1 1
s 3.564600842 _1_ AGT  --- 30 cbr 512 [0 0 0 0] ------- [1:0 2:0 32 0] [10] 0 1
r 3.564600842 _1_ RTR  --- 30 cbr 512 [0 0 0 0] ------- [1:0 2:0 32 0] [10] 0 1
s 3.564600842 _1_ RTR  --- 30 cbr 532 [0 0 0 0] ------- [1:0 2:0 32 2] [10] 0 1
r 3.570657193 _2_ AGT  --- 30 cbr 532 [13a 2 1 800] ------- [1:0 2:0 32 2] [10] 1 1
s 3.637283912 _1_ AGT  --- 31 cbr 512 [0 0 0 0] ------- [1:0 2:0 32 0] [11] 0 1
r 3.637283912 _1_ RTR  --- 31 cbr 512 [0 0 0 0] ------- [1:0 2:0 32 0] [11] 0 1
s 3.637283912 _1_ RTR  --- 31 cbr 532 [0 0 0 0] ------- [1:0 2:0 32 2] [11] 0 1
r 3.643000258 _2_ AGT  --- 31 cbr 532 [13a 2 1 800] ------- [1:0 2:0 32 2] [11] 1 1
s 3.721280047 _1_ AGT  --- 32 cbr 512 [0 0 0 0] ------- [1:0 2:0 32 0] [12] 0 1
r 3.721280047 _1_ RTR  --- 32 cbr 512 [0 0 0 0] ------- [1:0 2:0 32 0] [12] 0 1
s 3.721280047 _1_ RTR  --- 32 cbr 532 [0 0 0 0] ------- [1:0 2:0 32 2] [12] 0 1
r 3.727016387 _2_ AGT  --- 32 cbr 532 [13a 2 1 800] ------- [1:0 2:0 32 2] [12] 1 1
s 3.814621076 _1_ AGT  --- 33 cbr 512 [0 0 0 0] ------- [1:0 2:0 32 0] [13] 0 1
r 3.814621076 _1_ RTR  --- 33 cbr 512 [0 0 0 0] ------- [1:0 2:0 32 0] [13] 0 1
s 3.814621076 _1_ RTR  --- 33 cbr 532 [0 0 0 0] ------- [1:0 2:0 32 2] [13] 0 1
r 3.820297411 _2_ AGT  --- 33 cbr 532 [13a 2 1 800] ------- [1:0 2:0 32 2] [13] 1 1
s 3.958612962 _1_ AGT  --- 34 cbr 512 [0 0 0 0] ------- [1:0 2:0 32 0] [14] 0 1
r 3.958612962 _1_ RTR  --- 34 cbr 512 [0 0 0 0] ------- [1:0 2:0 32 0] [14] 0 1
s 3.958612962 _1_ RTR  --- 34 cbr 532 [0 0 0 0] ------- [1:0 2:0 32 2] [14] 0 1
r 3.964609287 _2_ AGT  --- 34 cbr 532 [13a 2 1 800] ------- [1:0 2:0 32 2] [14] 1 1
M 4.06280 7 (296.73, 78.03, 0.00), (301.93, 34.08), 8.80
s 4.104384915 _1_ AGT  --- 35 cbr 512 [0 0 0 0] ------- [1:0 2:0 32 0] [15] 0 1
r 4.104384915 _1_ RTR  --- 35 cbr 512 [0 0 0 0] ------- [1:0 2:0 32 0] [15] 0 1
s 4.104384915 _1_ RTR  --- 35 cbr 532 [0 0 0 0] ------- [1:0 2:0 32 2] [15] 0 1
r 4.110001231 _2_ AGT  --- 35 cbr 532 [13a 2 1 800] ------- [1:0 2:0 32 2] [15] 1 1
s 4.248887322 _1_ AGT  --- 36 cbr 512 [0 0 0 0] ------- [1:0 2:0 32 0] [16] 0 1
r 4.248887322 _1_ RTR  --- 36 cbr 512 [0 0 0 0] ------- [1:0 2:0 32 0] [16] 0 1
s 4.248887322 _1_ RTR  --- 36 cbr 532 [0 0 0 0] ------- [1:0 2:0 32 2] [16] 0 1
r 4.254883630 _2_ AGT  --- 36 cbr 532 [13a 2 1 800] ------- [1:0 2:0 32 2] [16] 1 1
s 4.305535827 _1_ AGT  --- 37 cbr 512 [0 0 0 0] ------- [1:0 2:0 32 0] [17] 0 1
r 4.305535827 _1_ RTR  --- 37 cbr 512 [0 0 0 0] ------- [1:0 2:0 32 0] [17] 0 1
s 4.305535827 _1_ RTR  --- 37 cbr 532 [0 0 0 0] ------- [1:0 2:0 32 2] [17] 0 1
r 4.311572132 _2_ AGT  --- 37 cbr 532 [13a 2 1 800] ------- [1:0 2:0 32 2] [17] 1 1