Sconfig 0.00000 tap: on snoop: rts? on errs? on
Sconfig 0.00000 salvage: on !bd replies? on
Sconfig 0.00000 grat error: on grat reply: on
Sconfig 0.00000 $reply for props: on ring 0 search: on
Sconfig 0.00000 using MOBICACHE
M 0.00000 0 (13.63, 286.65, 0.00), (143.35, 131.07), 1.55
M 0.00000 1 (361.85, 112.32, 0.00), (42.63, 291.83), 4.44
M 0.00000 2 (300.05, 139.03, 0.00), (345.36, 66.80), 6.82
M 0.00000 3 (49.13, 209.55, 0.00), (369.12, 26.65), 2.71
M 0.00000 4 (389.42, 278.92, 0.00), (190.97, 399.68), 1.76
M 0.00000 5 (174.58, 13.72, 0.00), (327.60, 34.26), 7.94
M 0.00000 6 (379.59, 380.45, 0.00), (283.19, 280.04), 9.46
M 0.00000 7 (276.65, 98.17, 0.00), (296.73, 78.03), 7.00
M 0.00000 8 (226.52, 192.90, 0.00), (259.83, 7.83), 8.24
M 0.00000 9 (18.17, 191.52, 0.00), (151.09, 332.05), 9.14
M 0.00000 10 (27.86, 178.26, 0.00), (148.00, 205.76), 1.48
M 0.00000 11 (160.54, 231.16, 0.00), (245.62, 53.72), 8.34
M 0.00000 12 (348.15, 237.53, 0.00), (370.23, 267.05), 6.90
M 0.00000 13 (170.83, 75.75, 0.00), (67.54, 273.75), 2.99
M 0.00000 14 (72.54, 89.91, 0.00), (317.87, 83.09), 2.08
M 0.00000 15 (63.68, 164.05, 0.00), (374.14, 91.05), 4.73
M 0.00000 16 (101.88, 216.86, 0.00), (135.45, 197.47), 0.29
M 0.00000 17 (200.99, 344.60, 0.00), (113.53, 333.33), 1.13
M 0.00000 18 (8.33, 332.70, 0.00), (277.83, 228.86), 4.91
M 0.00000 19 (376.93, 288.94, 0.00), (131.54, 77.14), 3.27
s 2.556838879 _1_ AGT  --- 0 cbr 512 [0 0 0 0] ------- [1:0 2:0 32 0] [0] 0 1
r 2.556838879 _1_ RTR  --- 0 cbr 512 [0 0 0 0] ------- [1:0 2:0 32 0] [0] 0 1
s 2.561333330 _1_ RTR  --- 1 DSR 32 [0 0 0 0] ------- [1:255 2:255 32 0] 1 [1 1] [0 1 0 0->0] [0 0 0 0->0]
r 2.562593473 _2_ RTR  --- 1 DSR 32 [0 ffffffff 1 800] ------- [1:255 2:255 32 0] 1 [1 1] [0 1 0 0->0] [0 0 0 0->0]
r 2.562593565 _7_ RTR  --- 1 DSR 32 [0 ffffffff 1 800] ------- [1:255 2:255 32 0] 1 [1 1] [0 1 0 0->0] [0 0 0 0->0]
r 2.562593774 _8_ RTR  --- 1 DSR 32 [0 ffffffff 1 800] ------- [1:255 2:255 32 0] 1 [1 1] [0 1 0 0->0] [0 0 0 0->0]
r 2.562593776 _12_ RTR  --- 1 DSR 32 [0 ffffffff 1 800] ------- [1:255 2:255 32 0] 1 [1 1] [0 1 0 0->0] [0 0 0 0->0]
r 2.562593885 _19_ RTR  --- 1 DSR 32 [0 ffffffff 1 800] ------- [1:255 2:255 32 0] 1 [1 1] [0 1 0 0->0] [0 0 0 0->0]
r 2.562593886 _4_ RTR  --- 1 DSR 32 [0 ffffffff 1 800] ------- [1:255 2:255 32 0] 1 [1 1] [0 1 0 0->0] [0 0 0 0->0]
r 2.562593953 _5_ RTR  --- 1 DSR 32 [0 ffffffff 1 800] ------- [1:255 2:255 32 0] 1 [1 1] [0 1 0 0->0] [0 0 0 0->0]
r 2.562593956 _13_ RTR  --- 1 DSR 32 [0 ffffffff 1 800] ------- [1:255 2:255 32 0] 1 [1 1] [0 1 0 0->0] [0 0 0 0->0]
r 2.562594013 _11_ RTR  --- 1 DSR 32 [0 ffffffff 1 800] ------- [1:255 2:255 32 0] 1 [1 1] [0 1 0 0->0] [0 0 0 0->0]
r 2.562594147 _6_ RTR  --- 1 DSR 32 [0 ffffffff 1 800] ------- [1:255 2:255 32 0] 1 [1 1] [0 1 0 0->0] [0 0 0 0->0]
s 2.571600160 _2_ RTR  --- 2 DSR 44 [0 0 0 0] ------- [2:255 1:255 254 1] 2 [0 1] [1 1 2 1->2] [0 0 0 0->0]
r 2.576024163 _1_ RTR  --- 2 DSR 44 [13a 1 2 800] ------- [2:255 1:255 254 1] 2 [0 1] [1 1 2 1->2] [0 0 0 0->0]
SFESTs 2.576024163 _1_ 0 [1 -> 2] 1(1) to 2 [1 |2 ]
s 2.576024163 _1_ RTR  --- 0 cbr 548 [0 0 0 0] ------- [1:0 2:0 32 2] [0] 0 1
r 2.582132592 _2_ RTR  --- 0 cbr 548 [13a 2 1 800] ------- [1:0 2:0 32 2] [0] 1 1
r 2.582132592 _2_ AGT  --- 0 cbr 512 [13a 2 1 800] ------- [1:0 2:0 32 2] [0] 1 1
s 2.696420589 _1_ AGT  --- 3 cbr 512 [0 0 0 0] ------- [1:0 2:0 32 0] [1] 0 1
r 2.696420589 _1_ RTR  --- 3 cbr 512 [0 0 0 0] ------- [1:0 2:0 32 0] [1] 0 1
SFESTs 2.696420589 _1_ 3 [1 -> 2] 1(1) to 2 [1 |2 ]
s 2.696420589 _1_ RTR  --- 3 cbr 548 [0 0 0 0] ------- [1:0 2:0 32 2] [1] 0 1
r 2.702565008 _2_ RTR  --- 3 cbr 548 [13a 2 1 800] ------- [1:0 2:0 32 2] [1] 1 1
r 2.702565008 _2_ AGT  --- 3 cbr 512 [13a 2 1 800] ------- [1:0 2:0 32 2] [1] 1 1
s 2.831016851 _1_ AGT  --- 4 cbr 512 [0 0 0 0] ------- [1:0 2:0 32 0] [2] 0 1
r 2.831016851 _1_ RTR  --- 4 cbr 512 [0 0 0 0] ------- [1:0 2:0 32 0] [2] 0 1
SFESTs 2.831016851 _1_ 4 [1 -> 2] 1(1) to 2 [1 |2 ]
s 2.831016851 _1_ RTR  --- 4 cbr 548 [0 0 0 0] ------- [1:0 2:0 32 2] [2] 0 1
r 2.836641259 _2_ RTR  --- 4 cbr 548 [13a 2 1 800] ------- [1:0 2:0 32 2] [2] 1 1
r 2.836641259 _2_ AGT  --- 4 cbr 512 [13a 2 1 800] ------- [1:0 2:0 32 2] [2] 1 1
s 2.945884016 _1_ AGT  --- 5 cbr 512 [0 0 0 0] ------- [1:0 2:0 32 0] [3] 0 1
r 2.945884016 _1_ RTR  --- 5 cbr 512 [0 0 0 0] ------- [1:0 2:0 32 0] [3] 0 1
SFs 2.945884016 _1_ 5 [1 -> 2] 1(0) to 2 
s 2.945884016 _1_ RTR  --- 5 cbr 532 [0 0 0 0] ------- [1:0 2:0 32 2] [3] 0 1
r 2.951820414 _2_ RTR  --- 5 cbr 532 [13a 2 1 800] ------- [1:0 2:0 32 2] [3] 1 1
r 2.951820414 _2_ AGT  --- 5 cbr 512 [13a 2 1 800] ------- [1:0 2:0 32 2] [3] 1 1
s 3.089683900 _1_ AGT  --- 6 cbr 512 [0 0 0 0] ------- [1:0 2:0 32 0] [4] 0 1
r 3.089683900 _1_ RTR  --- 6 cbr 512 [0 0 0 0] ------- [1:0 2:0 32 0] [4] 0 1
SFs 3.089683900 _1_ 6 [1 -> 2] 1(0) to 2 
s 3.089683900 _1_ RTR  --- 6 cbr 532 [0 0 0 0] ------- [1:0 2:0 32 2] [4] 0 1
r 3.095360287 _2_ RTR  --- 6 cbr 532 [13a 2 1 800] ------- [1:0 2:0 32 2] [4] 1 1
r 3.095360287 _2_ AGT  --- 6 cbr 512 [13a 2 1 800] ------- [1:0 2:0 32 2] [4] 1 1
s 3.189957077 _1_ AGT  --- 7 cbr 512 [0 0 0 0] ------- [1:0 2:0 32 0] [5] 0 1
r 3.189957077 _1_ RTR  --- 7 cbr 512 [0 0 0 0] ------- [1:0 2:0 32 0] [5] 0 1
SFs 3.189957077 _1_ 7 [1 -> 2] 1(0) to 2 
s 3.189957077 _1_ RTR  --- 7 cbr 532 [0 0 0 0] ------- [1:0 2:0 32 2] [5] 0 1
r 3.195913457 _2_ RTR  --- 7 cbr 532 [13a 2 1 800] ------- [1:0 2:0 32 2] [5] 1 1
r 3.195913457 _2_ AGT  --- 7 cbr 512 [13a 2 1 800] ------- [1:0 2:0 32 2] [5] 1 1
s 3.272721028 _1_ AGT  --- 8 cbr 512 [0 0 0 0] ------- [1:0 2:0 32 0] [6] 0 1
r 3.272721028 _1_ RTR  --- 8 cbr 512 [0 0 0 0] ------- [1:0 2:0 32 0] [6] 0 1
SFs 3.272721028 _1_ 8 [1 -> 2] 1(0) to 2 
s 3.272721028 _1_ RTR  --- 8 cbr 532 [0 0 0 0] ------- [1:0 2:0 32 2] [6] 0 1
r 3.278677401 _2_ RTR  --- 8 cbr 532 [13a 2 1 800] ------- [1:0 2:0 32 2] [6] 1 1
r 3.278677401 _2_ AGT  --- 8 cbr 512 [13a 2 1 800] ------- [1:0 2:0 32 2] [6] 1 1
s 3.383545344 _1_ AGT  --- 9 cbr 512 [0 0 0 0] ------- [1:0 2:0 32 0] [7] 0 1
r 3.383545344 _1_ RTR  --- 9 cbr 512 [0 0 0 0] ------- [1:0 2:0 32 0] [7] 0 1
SFs 3.383545344 _1_ 9 [1 -> 2] 1(0) to 2 
s 3.383545344 _1_ RTR  --- 9 cbr 532 [0 0 0 0] ------- [1:0 2:0 32 2] [7] 0 1
r 3.389341708 _2_ RTR  --- 9 cbr 532 [13a 2 1 800] ------- [1:0 2:0 32 2] [7] 1 1
r 3.389341708 _2_ AGT  --- 9 cbr 512 [13a 2 1 800] ------- [1:0 2:0 32 2] [7] 1 1
s 3.471850740 _1_ AGT  --- 10 cbr 512 [0 0 0 0] ------- [1:0 2:0 32 0] [8] 0 1
r 3.471850740 _1_ RTR  --- 10 cbr 512 [0 0 0 0] ------- [1:0 2:0 32 0] [8] 0 1
SFs 3.471850740 _1_ 10 [1 -> 2] 1(0) to 2 
s 3.471850740 _1_ RTR  --- 10 cbr 532 [0 0 0 0] ------- [1:0 2:0 32 2] [8] 0 1
r 3.477367098 _2_ RTR  --- 10 cbr 532 [13a 2 1 800] ------- [1:0 2:0 32 2] [8] 1 1
r 3.477367098 _2_ AGT  --- 10 cbr 512 [13a 2 1 800] ------- [1:0 2:0 32 2] [8] 1 1
s 3.595814946 _1_ AGT  --- 11 cbr 512 [0 0 0 0] ------- [1:0 2:0 32 0] [9] 0 1
r 3.595814946 _1_ RTR  --- 11 cbr 512 [0 0 0 0] ------- [1:0 2:0 32 0] [9] 0 1
SFs 3.595814946 _1_ 11 [1 -> 2] 1(0) to 2 
s 3.595814946 _1_ RTR  --- 11 cbr 532 [0 0 0 0] ------- [1:0 2:0 32 2] [9] 0 1
r 3.601851295 _2_ RTR  --- 11 cbr 532 [13a 2 1 800] ------- [1:0 2:0 32 2] [9] 1 1
r 3.601851295 _2_ AGT  --- 11 cbr 512 [13a 2 1 800] ------- [1:0 2:0 32 2] [9] 1 1
s 3.726613806 _1_ AGT  --- 12 cbr 512 [0 0 0 0] ------- [1:0 2:0 32 0] [10] 0 1
r 3.726613806 _1_ RTR  --- 12 cbr 512 [0 0 0 0] ------- [1:0 2:0 32 0] [10] 0 1
SFs 3.726613806 _1_ 12 [1 -> 2] 1(0) to 2 
s 3.726613806 _1_ RTR  --- 12 cbr 532 [0 0 0 0] ------- [1:0 2:0 32 2] [10] 0 1
r 3.732410146 _2_ RTR  --- 12 cbr 532 [13a 2 1 800] ------- [1:0 2:0 32 2] [10] 1 1
r 3.732410146 _2_ AGT  --- 12 cbr 512 [13a 2 1 800] ------- [1:0 2:0 32 2] [10] 1 1
s 3.790280228 _1_ AGT  --- 13 cbr 512 [0 0 0 0] ------- [1:0 2:0 32 0] [11] 0 1
r 3.790280228 _1_ RTR  --- 13 cbr 512 [0 0 0 0] ------- [1:0 2:0 32 0] [11] 0 1
SFs 3.790280228 _1_ 13 [1 -> 2] 1(0) to 2 
s 3.790280228 _1_ RTR  --- 13 cbr 532 [0 0 0 0] ------- [1:0 2:0 32 2] [11] 0 1
r 3.796296564 _2_ RTR  --- 13 cbr 532 [13a 2 1 800] ------- [1:0 2:0 32 2] [11] 1 1
r 3.796296564 _2_ AGT  --- 13 cbr 512 [13a 2 1 800] ------- [1:0 2:0 32 2] [11] 1 1
s 3.867677392 _1_ AGT  --- 14 cbr 512 [0 0 0 0] ------- [1:0 2:0 32 0] [12] 0 1
r 3.867677392 _1_ RTR  --- 14 cbr 512 [0 0 0 0] ------- [1:0 2:0 32 0] [12] 0 1
SFs 3.867677392 _1_ 14 [1 -> 2] 1(0) to 2 
s 3.867677392 _1_ RTR  --- 14 cbr 532 [0 0 0 0] ------- [1:0 2:0 32 2] [12] 0 1
r 3.873693723 _2_ RTR  --- 14 cbr 532 [13a 2 1 800] ------- [1:0 2:0 32 2] [12] 1 1
r 3.873693723 _2_ AGT  --- 14 cbr 512 [13a 2 1 800] ------- [1:0 2:0 32 2] [12] 1 1
s 3.960913551 _1_ AGT  --- 15 cbr 512 [0 0 0 0] ------- [1:0 2:0 32 0] [13] 0 1
r 3.960913551 _1_ RTR  --- 15 cbr 512 [0 0 0 0] ------- [1:0 2:0 32 0] [13] 0 1
SFs 3.960913551 _1_ 15 [1 -> 2] 1(0) to 2 
s 3.960913551 _1_ RTR  --- 15 cbr 532 [0 0 0 0] ------- [1:0 2:0 32 2] [13] 0 1
r 3.966769876 _2_ RTR  --- 15 cbr 532 [13a 2 1 800] ------- [1:0 2:0 32 2] [13] 1 1
r 3.966769876 _2_ AGT  --- 15 cbr 512 [13a 2 1 800] ------- [1:0 2:0 32 2] [13] 1 1
s 4.018060052 _1_ AGT  --- 16 cbr 512 [0 0 0 0] ------- [1:0 2:0 32 0] [14] 0 1
r 4.018060052 _1_ RTR  --- 16 cbr 512 [0 0 0 0] ------- [1:0 2:0 32 0] [14] 0 1
SFs 4.018060052 _1_ 16 [1 -> 2] 1(0) to 2 
s 4.018060052 _1_ RTR  --- 16 cbr 532 [0 0 0 0] ------- [1:0 2:0 32 2] [14] 0 1
r 4.023676373 _2_ RTR  --- 16 cbr 532 [13a 2 1 800] ------- [1:0 2:0 32 2] [14] 1 1
r 4.023676373 _2_ AGT  --- 16 cbr 512 [13a 2 1 800] ------- [1:0 2:0 32 2] [14] 1 1
M 4.06280 7 (296.73, 78.03, 0.00), (301.93, 34.08), 8.80
s 4.093213954 _1_ AGT  --- 17 cbr 512 [0 0 0 0] ------- [1:0 2:0 32 0] [15] 0 1
r 4.093213954 _1_ RTR  --- 17 cbr 512 [0 0 0 0] ------- [1:0 2:0 32 0] [15] 0 1
SFs 4.093213954 _1_ 17 [1 -> 2] 1(0) to 2 
s 4.093213954 _1_ RTR  --- 17 cbr 532 [0 0 0 0] ------- [1:0 2:0 32 2] [15] 0 1
r 4.099090271 _2_ RTR  --- 17 cbr 532 [13a 2 1 800] ------- [1:0 2:0 32 2] [15] 1 1
r 4.099090271 _2_ AGT  --- 17 cbr 512 [13a 2 1 800] ------- [1:0 2:0 32 2] [15] 1 1
s 4.226440548 _1_ AGT  --- 18 cbr 512 [0 0 0 0] ------- [1:0 2:0 32 0] [16] 0 1
r 4.226440548 _1_ RTR  --- 18 cbr 512 [0 0 0 0] ------- [1:0 2:0 32 0] [16] 0 1
SFs 4.226440548 _1_ 18 [1 -> 2] 1(0) to 2 
s 4.226440548 _1_ RTR  --- 18 cbr 532 [0 0 0 0] ------- [1:0 2:0 32 2] [16] 0 1
r 4.232236857 _2_ RTR  --- 18 cbr 532 [13a 2 1 800] ------- [1:0 2:0 32 2] [16] 1 1
r 4.232236857 _2_ AGT  --- 18 cbr 512 [13a 2 1 800] ------- [1:0 2:0 32 2] [16] 1 1
s 4.278212511 _1_ AGT  --- 19 cbr 512 [0 0 0 0] ------- [1:0 2:0 32 0] [17] 0 1
r 4.278212511 _1_ RTR  --- 19 cbr 512 [0 0 0 0] ------- [1:0 2:0 32 0] [17] 0 1
SFs 4.278212511 _1_ 19 [1 -> 2] 1(0) to 2 
s 4.278212511 _1_ RTR  --- 19 cbr 532 [0 0 0 0] ------- [1:0 2:0 32 2] [17] 0 1
r 4.284228818 _2_ RTR  --- 19 cbr 532 [13a 2 1 800] ------- [1:0 2:0 32 2] [17] 1 1
r 4.284228818 _2_ AGT  --- 19 cbr 512 [13a 2 1 800] ------- [1:0 2:0 32 2] [17] 1 1
s 4.332244641 _1_ AGT  --- 20 cbr 512 [0 0 0 0] ------- [1:0 2:0 32 0] [18] 0 1
r 4.332244641 _1_ RTR  --- 20 cbr 512 [0 0 0 0] ------- [1:0 2:0 32 0] [18] 0 1
SFs 4.332244641 _1_ 20 [1 -> 2] 1(0) to 2 
s 4.332244641 _1_ RTR  --- 20 cbr 532 [0 0 0 0] ------- [1:0 2:0 32 2] [18] 0 1
r 4.337900945 _2_ RTR  --- 20 cbr 532 [13a 2 1 800] ------- [1:0 2:0 32 2] [18] 1 1
r 4.337900945 _2_ AGT  --- 20 cbr 512 [13a 2 1 800] ------- [1:0 2:0 32 2] [18] 1 1
s 4.391306125 _1_ AGT  --- 21 cbr 512 [0 0 0 0] ------- [1:0 2:0 32 0] [19] 0 1
r 4.391306125 _1_ RTR  --- 21 cbr 512 [0 0 0 0] ------- [1:0 2:0 32 0] [19] 0 1
SFs 4.391306125 _1_ 21 [1 -> 2] 1(0) to 2 
s 4.391306125 _1_ RTR  --- 21 cbr 532 [0 0 0 0] ------- [1:0 2:0 32 2] [19] 0 1
r 4.396822426 _2_ RTR  --- 21 cbr 532 [13a 2 1 800] ------- [1:0 2:0 32 2] [19] 1 1
r 4.396822426 _2_ AGT  --- 21 cbr 512 [13a 2 1 800] ------- [1:0 2:0 32 2] [19] 1 1
s 4.484992272 _1_ AGT  --- 22 cbr 512 [0 0 0 0] ------- [1:0 2:0 32 0] [20] 0 1
r 4.484992272 _1_ RTR  --- 22 cbr 512 [0 0 0 0] ------- [1:0 2:0 32 0] [20] 0 1
SFs 4.484992272 _1_ 22 [1 -> 2] 1(0) to 2 
s 4.484992272 _1_ RTR  --- 22 cbr 532 [0 0 0 0] ------- [1:0 2:0 32 2] [20] 0 1
r 4.490788568 _2_ RTR  --- 22 cbr 532 [13a 2 1 800] ------- [1:0 2:0 32 2] [20] 1 1
r 4.490788568 _2_ AGT  --- 22 cbr 512 [13a 2 1 800] ------- [1:0 2:0 32 2] [20] 1 1
s 4.592737681 _1_ AGT  --- 23 cbr 512 [0 0 0 0] ------- [1:0 2:0 32 0] [21] 0 1
r 4.592737681 _1_ RTR  --- 23 cbr 512 [0 0 0 0] ------- [1:0 2:0 32 0] [21] 0 1
SFs 4.592737681 _1_ 23 [1 -> 2] 1(0) to 2 
s 4.592737681 _1_ RTR  --- 23 cbr 532 [0 0 0 0] ------- [1:0 2:0 32 2] [21] 0 1
r 4.598413972 _2_ RTR  --- 23 cbr 532 [13a 2 1 800] ------- [1:0 2:0 32 2] [21] 1 1
r 4.598413972 _2_ AGT  --- 23 cbr 512 [13a 2 1 800] ------- [1:0 2:0 32 2] [21] 1 1
s 4.660854680 _1_ AGT  --- 24 cbr 512 [0 0 0 0] ------- [1:0 2:0 32 0] [22] 0 1
r 4.660854680 _1_ RTR  --- 24 cbr 512 [0 0 0 0] ------- [1:0 2:0 32 0] [22] 0 1
SFs 4.660854680 _1_ 24 [1 -> 2] 1(0) to 2 
s 4.660854680 _1_ RTR  --- 24 cbr 532 [0 0 0 0] ------- [1:0 2:0 32 2] [22] 0 1
r 4.666850968 _2_ RTR  --- 24 cbr 532 [13a 2 1 800] ------- [1:0 2:0 32 2] [22] 1 1
r 4.666850968 _2_ AGT  --- 24 cbr 512 [13a 2 1 800] ------- [1:0 2:0 32 2] [22] 1 1
s 4.712402726 _1_ AGT  --- 25 cbr 512 [0 0 0 0] ------- [1:0 2:0 32 0] [23] 0 1
r 4.712402726 _1_ RTR  --- 25 cbr 512 [0 0 0 0] ------- [1:0 2:0 32 0] [23] 0 1
SFs 4.712402726 _1_ 25 [1 -> 2] 1(0) to 2 
s 4.712402726 _1_ RTR  --- 25 cbr 532 [0 0 0 0] ------- [1:0 2:0 32 2] [23] 0 1
r 4.718099012 _2_ RTR  --- 25 cbr 532 [13a 2 1 800] ------- [1:0 2:0 32 2] [23] 1 1
r 4.718099012 _2_ AGT  --- 25 cbr 512 [13a 2 1 800] ------- [1:0 2:0 32 2] [23] 1 1
s 4.831094337 _1_ AGT  --- 26 cbr 512 [0 0 0 0] ------- [1:0 2:0 32 0] [24] 0 1
r 4.831094337 _1_ RTR  --- 26 cbr 512 [0 0 0 0] ------- [1:0 2:0 32 0] [24] 0 1
SFs 4.831094337 _1_ 26 [1 -> 2] 1(0) to 2 
s 4.831094337 _1_ RTR  --- 26 cbr 532 [0 0 0 0] ------- [1:0 2:0 32 2] [24] 0 1
r 4.836890618 _2_ RTR  --- 26 cbr 532 [13a 2 1 800] ------- [1:0 2:0 32 2] [24] 1 1
r 4.836890618 _2_ AGT  --- 26 cbr 512 [13a 2 1 800] ------- [1:0 2:0 32 2] [24] 1 1
s 4.884498523 _1_ AGT  --- 27 cbr 512 [0 0 0 0] ------- [1:0 2:0 32 0] [25] 0 1
r 4.884498523 _1_ RTR  --- 27 cbr 512 [0 0 0 0] ------- [1:0 2:0 32 0] [25] 0 1
SFs 4.884498523 _1_ 27 [1 -> 2] 1(0) to 2 
s 4.884498523 _1_ RTR  --- 27 cbr 532 [0 0 0 0] ------- [1:0 2:0 32 2] [25] 0 1
r 4.890194803 _2_ RTR  --- 27 cbr 532 [13a 2 1 800] ------- [1:0 2:0 32 2] [25] 1 1
r 4.890194803 _2_ AGT  --- 27 cbr 512 [13a 2 1 800] ------- [1:0 2:0 32 2] [25] 1 1
s 4.957307161 _1_ AGT  --- 28 cbr 512 [0 0 0 0] ------- [1:0 2:0 32 0] [26] 0 1
r 4.957307161 _1_ RTR  --- 28 cbr 512 [0 0 0 0] ------- [1:0 2:0 32 0] [26] 0 1
SFs 4.957307161 _1_ 28 [1 -> 2] 1(0) to 2 
s 4.957307161 _1_ RTR  --- 28 cbr 532 [0 0 0 0] ------- [1:0 2:0 32 2] [26] 0 1
r 4.963043439 _2_ RTR  --- 28 cbr 532 [13a 2 1 800] ------- [1:0 2:0 32 2] [26] 1 1
r 4.963043439 _2_ AGT  --- 28 cbr 512 [13a 2 1 800] ------- [1:0 2:0 32 2] [26] 1 1
s 5.024403054 _1_ AGT  --- 29 cbr 512 [0 0 0 0] ------- [1:0 2:0 32 0] [27] 0 1
r 5.024403054 _1_ RTR  --- 29 cbr 512 [0 0 0 0] ------- [1:0 2:0 32 0] [27] 0 1
SFs 5.024403054 _1_ 29 [1 -> 2] 1(0) to 2 
s 5.024403054 _1_ RTR  --- 29 cbr 532 [0 0 0 0] ------- [1:0 2:0 32 2] [27] 0 1
r 5.030459329 _2_ RTR  --- 29 cbr 532 [13a 2 1 800] ------- [1:0 2:0 32 2] [27] 1 1
r 5.030459329 _2_ AGT  --- 29 cbr 512 [13a 2 1 800] ------- [1:0 2:0 32 2] [27] 1 1
s 5.086619477 _1_ AGT  --- 30 cbr 512 [0 0 0 0] ------- [1:0 2:0 32 0] [28] 0 1
r 5.086619477 _1_ RTR  --- 30 cbr 512 [0 0 0 0] ------- [1:0 2:0 32 0] [28] 0 1
SFs 5.086619477 _1_ 30 [1 -> 2] 1(0) to 2 
s 5.086619477 _1_ RTR  --- 30 cbr 532 [0 0 0 0] ------- [1:0 2:0 32 2] [28] 0 1
r 5.092635751 _2_ RTR  --- 30 cbr 532 [13a 2 1 800] ------- [1:0 2:0 32 2] [28] 1 1
r 5.092635751 _2_ AGT  --- 30 cbr 512 [13a 2 1 800] ------- [1:0 2:0 32 2] [28] 1 1
s 5.137886258 _1_ AGT  --- 31 cbr 512 [0 0 0 0] ------- [1:0 2:0 32 0] [29] 0 1
r 5.137886258 _1_ RTR  --- 31 cbr 512 [0 0 0 0] ------- [1:0 2:0 32 0] [29] 0 1
SFs 5.137886258 _1_ 31 [1 -> 2] 1(0) to 2 
s 5.137886258 _1_ RTR  --- 31 cbr 532 [0 0 0 0] ------- [1:0 2:0 32 2] [29] 0 1
r 5.143682531 _2_ RTR  --- 31 cbr 532 [13a 2 1 800] ------- [1:0 2:0 32 2] [29] 1 1
r 5.143682531 _2_ AGT  --- 31 cbr 512 [13a 2 1 800] ------- [1:0 2:0 32 2] [29] 1 1
s 5.222917852 _1_ AGT  --- 32 cbr 512 [0 0 0 0] ------- [1:0 2:0 32 0] [30] 0 1
r 5.222917852 _1_ RTR  --- 32 cbr 512 [0 0 0 0] ------- [1:0 2:0 32 0] [30] 0 1
SFs 5.222917852 _1_ 32 [1 -> 2] 1(0) to 2 
s 5.222917852 _1_ RTR  --- 32 cbr 532 [0 0 0 0] ------- [1:0 2:0 32 2] [30] 0 1
r 5.229014122 _2_ RTR  --- 32 cbr 532 [13a 2 1 800] ------- [1:0 2:0 32 2] [30] 1 1
r 5.229014122 _2_ AGT  --- 32 cbr 512 [13a 2 1 800] ------- [1:0 2:0 32 2] [30] 1 1
s 5.296037369 _1_ AGT  --- 33 cbr 512 [0 0 0 0] ------- [1:0 2:0 32 0] [31] 0 1
r 5.296037369 _1_ RTR  --- 33 cbr 512 [0 0 0 0] ------- [1:0 2:0 32 0] [31] 0 1
SFs 5.296037369 _1_ 33 [1 -> 2] 1(0) to 2 
s 5.296037369 _1_ RTR  --- 33 cbr 532 [0 0 0 0] ------- [1:0 2:0 32 2] [31] 0 1
r 5.301793639 _2_ RTR  --- 33 cbr 532 [13a 2 1 800] ------- [1:0 2:0 32 2] [31] 1 1
r 5.301793639 _2_ AGT  --- 33 cbr 512 [13a 2 1 800] ------- [1:0 2:0 32 2] [31] 1 1
M 5.33995 12 (370.23, 267.05, 0.00), (82.23, 133.95), 8.62
s 5.435890822 _1_ AGT  --- 34 cbr 512 [0 0 0 0] ------- [1:0 2:0 32 0] [32] 0 1
r 5.435890822 _1_ RTR  --- 34 cbr 512 [0 0 0 0] ------- [1:0 2:0 32 0] [32] 0 1
SFs 5.435890822 _1_ 34 [1 -> 2] 1(0) to 2 
s 5.435890822 _1_ RTR  --- 34 cbr 532 [0 0 0 0] ------- [1:0 2:0 32 2] [32] 0 1
r 5.441687089 _2_ RTR  --- 34 cbr 532 [13a 2 1 800] ------- [1:0 2:0 32 2] [32] 1 1
r 5.441687089 _2_ AGT  --- 34 cbr 512 [13a 2 1 800] ------- [1:0 2:0 32 2] [32] 1 1
s 5.489946339 _1_ AGT  --- 35 cbr 512 [0 0 0 0] ------- [1:0 2:0 32 0] [33] 0 1
r 5.489946339 _1_ RTR  --- 35 cbr 512 [0 0 0 0] ------- [1:0 2:0 32 0] [33] 0 1
SFs 5.489946339 _1_ 35 [1 -> 2] 1(0) to 2 
s 5.489946339 _1_ RTR  --- 35 cbr 532 [0 0 0 0] ------- [1:0 2:0 32 2] [33] 0 1
r 5.495982606 _2_ RTR  --- 35 cbr 532 [13a 2 1 800] ------- [1:0 2:0 32 2] [33] 1 1
r 5.495982606 _2_ AGT  --- 35 cbr 512 [13a 2 1 800] ------- [1:0 2:0 32 2] [33] 1 1
s 5.612507797 _1_ AGT  --- 36 cbr 512 [0 0 0 0] ------- [1:0 2:0 32 0] [34] 0 1
r 5.612507797 _1_ RTR  --- 36 cbr 512 [0 0 0 0] ------- [1:0 2:0 32 0] [34] 0 1
SFs 5.612507797 _1_ 36 [1 -> 2] 1(0) to 2 
s 5.612507797 _1_ RTR  --- 36 cbr 532 [0 0 0 0] ------- [1:0 2:0 32 2] [34] 0 1
r 5.618544064 _2_ RTR  --- 36 cbr 532 [13a 2 1 800] ------- [1:0 2:0 32 2] [34] 1 1
r 5.618544064 _2_ AGT  --- 36 cbr 512 [13a 2 1 800] ------- [1:0 2:0 32 2] [34] 1 1
s 5.751031963 _1_ AGT  --- 37 cbr 512 [0 0 0 0] ------- [1:0 2:0 32 0] [35] 0 1
r 5.751031963 _1_ RTR  --- 37 cbr 512 [0 0 0 0] ------- [1:0 2:0 32 0] [35] 0 1
SFs 5.751031963 _1_ 37 [1 -> 2] 1(0) to 2 
s 5.751031963 _1_ RTR  --- 37 cbr 532 [0 0 0 0] ------- [1:0 2:0 32 2] [35] 0 1
r 5.756828230 _2_ RTR  --- 37 cbr 532 [13a 2 1 800] ------- [1:0 2:0 32 2] [35] 1 1
r 5.756828230 _2_ AGT  --- 37 cbr 512 [13a 2 1 800] ------- [1:0 2:0 32 2] [35] 1 1
s 5.825066455 _1_ AGT  --- 38 cbr 512 [0 0 0 0] ------- [1:0 2:0 32 0] [36] 0 1
r 5.825066455 _1_ RTR  --- 38 cbr 512 [0 0 0 0] ------- [1:0 2:0 32 0] [36] 0 1
SFs 5.825066455 _1_ 38 [1 -> 2] 1(0) to 2 
s 5.825066455 _1_ RTR  --- 38 cbr 532 [0 0 0 0] ------- [1:0 2:0 32 2] [36] 0 1
r 5.831042723 _2_ RTR  --- 38 cbr 532 [13a 2 1 800] ------- [1:0 2:0 32 2] [36] 1 1
r 5.831042723 _2_ AGT  --- 38 cbr 512 [13a 2 1 800] ------- [1:0 2:0 32 2] [36] 1 1
s 5.883224900 _1_ AGT  --- 39 cbr 512 [0 0 0 0] ------- [1:0 2:0 32 0] [37] 0 1
r 5.883224900 _1_ RTR  --- 39 cbr 512 [0 0 0 0] ------- [1:0 2:0 32 0] [37] 0 1
SFs 5.883224900 _1_ 39 [1 -> 2] 1(0) to 2 
s 5.883224900 _1_ RTR  --- 39 cbr 532 [0 0 0 0] ------- [1:0 2:0 32 2] [37] 0 1
r 5.889221168 _2_ RTR  --- 39 cbr 532 [13a 2 1 800] ------- [1:0 2:0 32 2] [37] 1 1
r 5.889221168 _2_ AGT  --- 39 cbr 512 [13a 2 1 800] ------- [1:0 2:0 32 2] [37] 1 1
s 5.965905468 _1_ AGT  --- 40 cbr 512 [0 0 0 0] ------- [1:0 2:0 32 0] [38] 0 1
r 5.965905468 _1_ RTR  --- 40 cbr 512 [0 0 0 0] ------- [1:0 2:0 32 0] [38] 0 1
SFs 5.965905468 _1_ 40 [1 -> 2] 1(0) to 2 
s 5.965905468 _1_ RTR  --- 40 cbr 532 [0 0 0 0] ------- [1:0 2:0 32 2] [38] 0 1
r 5.971841737 _2_ RTR  --- 40 cbr 532 [13a 2 1 800] ------- [1:0 2:0 32 2] [38] 1 1
r 5.971841737 _2_ AGT  --- 40 cbr 512 [13a 2 1 800] ------- [1:0 2:0 32 2] [38] 1 1
s 6.045711982 _1_ AGT  --- 41 cbr 512 [0 0 0 0] ------- [1:0 2:0 32 0] [39] 0 1
r 6.045711982 _1_ RTR  --- 41 cbr 512 [0 0 0 0] ------- [1:0 2:0 32 0] [39] 0 1
SFs 6.045711982 _1_ 41 [1 -> 2] 1(0) to 2 
s 6.045711982 _1_ RTR  --- 41 cbr 532 [0 0 0 0] ------- [1:0 2:0 32 2] [39] 0 1
r 6.051248252 _2_ RTR  --- 41 cbr 532 [13a 2 1 800] ------- [1:0 2:0 32 2] [39] 1 1
r 6.051248252 _2_ AGT  --- 41 cbr 512 [13a 2 1 800] ------- [1:0 2:0 32 2] [39] 1 1
s 6.150556566 _1_ AGT  --- 42 cbr 512 [0 0 0 0] ------- [1:0 2:0 32 0] [40] 0 1
r 6.150556566 _1_ RTR  --- 42 cbr 512 [0 0 0 0] ------- [1:0 2:0 32 0] [40] 0 1
SFs 6.150556566 _1_ 42 [1 -> 2] 1(0) to 2 
s 6.150556566 _1_ RTR  --- 42 cbr 532 [0 0 0 0] ------- [1:0 2:0 32 2] [40] 0 1
r 6.156312838 _2_ RTR  --- 42 cbr 532 [13a 2 1 800] ------- [1:0 2:0 32 2] [40] 1 1
r 6.156312838 _2_ AGT  --- 42 cbr 512 [13a 2 1 800] ------- [1:0 2:0 32 2] [40] 1 1
s 6.281839598 _1_ AGT  --- 43 cbr 512 [0 0 0 0] ------- [1:0 2:0 32 0] [41] 0 1
r 6.281839598 _1_ RTR  --- 43 cbr 512 [0 0 0 0] ------- [1:0 2:0 32 0] [41] 0 1
SFs 6.281839598 _1_ 43 [1 -> 2] 1(0) to 2 
s 6.281839598 _1_ RTR  --- 43 cbr 532 [0 0 0 0] ------- [1:0 2:0 32 2] [41] 0 1
r 6.287815873 _2_ RTR  --- 43 cbr 532 [13a 2 1 800] ------- [1:0 2:0 32 2] [41] 1 1
r 6.287815873 _2_ AGT  --- 43 cbr 512 [13a 2 1 800] ------- [1:0 2:0 32 2] [41] 1 1
s 6.376855956 _1_ AGT  --- 44 cbr 512 [0 0 0 0] ------- [1:0 2:0 32 0] [42] 0 1
r 6.376855956 _1_ RTR  --- 44 cbr 512 [0 0 0 0] ------- [1:0 2:0 32 0] [42] 0 1
SFs 6.376855956 _1_ 44 [1 -> 2] 1(0) to 2 
s 6.376855956 _1_ RTR  --- 44 cbr 532 [0 0 0 0] ------- [1:0 2:0 32 2] [42] 0 1
r 6.382852234 _2_ RTR  --- 44 cbr 532 [13a 2 1 800] ------- [1:0 2:0 32 2] [42] 1 1
r 6.382852234 _2_ AGT  --- 44 cbr 512 [13a 2 1 800] ------- [1:0 2:0 32 2] [42] 1 1
s 6.505865020 _1_ AGT  --- 45 cbr 512 [0 0 0 0] ------- [1:0 2:0 32 0] [43] 0 1
r 6.505865020 _1_ RTR  --- 45 cbr 512 [0 0 0 0] ------- [1:0 2:0 32 0] [43] 0 1
SFs 6.505865020 _1_ 45 [1 -> 2] 1(0) to 2 
s 6.505865020 _1_ RTR  --- 45 cbr 532 [0 0 0 0] ------- [1:0 2:0 32 2] [43] 0 1
r 6.511701302 _2_ RTR  --- 45 cbr 532 [13a 2 1 800] ------- [1:0 2:0 32 2] [43] 1 1
r 6.511701302 _2_ AGT  --- 45 cbr 512 [13a 2 1 800] ------- [1:0 2:0 32 2] [43] 1 1
s 6.646805610 _1_ AGT  --- 46 cbr 512 [0 0 0 0] ------- [1:0 2:0 32 0] [44] 0 1
r 6.646805610 _1_ RTR  --- 46 cbr 512 [0 0 0 0] ------- [1:0 2:0 32 0] [44] 0 1
SFs 6.646805610 _1_ 46 [1 -> 2] 1(0) to 2 
s 6.646805610 _1_ RTR  --- 46 cbr 532 [0 0 0 0] ------- [1:0 2:0 32 2] [44] 0 1
r 6.652381898 _2_ RTR  --- 46 cbr 532 [13a 2 1 800] ------- [1:0 2:0 32 2] [44] 1 1
r 6.652381898 _2_ AGT  --- 46 cbr 512 [13a 2 1 800] ------- [1:0 2:0 32 2] [44] 1 1
s 6.741569248 _1_ AGT  --- 47 cbr 512 [0 0 0 0] ------- [1:0 2:0 32 0] [45] 0 1
r 6.741569248 _1_ RTR  --- 47 cbr 512 [0 0 0 0] ------- [1:0 2:0 32 0] [45] 0 1
SFs 6.741569248 _1_ 47 [1 -> 2] 1(0) to 2 
s 6.741569248 _1_ RTR  --- 47 cbr 532 [0 0 0 0] ------- [1:0 2:0 32 2] [45] 0 1
r 6.747145540 _2_ RTR  --- 47 cbr 532 [13a 2 1 800] ------- [1:0 2:0 32 2] [45] 1 1
r 6.747145540 _2_ AGT  --- 47 cbr 512 [13a 2 1 800] ------- [1:0 2:0 32 2] [45] 1 1
s 6.872558872 _1_ AGT  --- 48 cbr 512 [0 0 0 0] ------- [1:0 2:0 32 0] [46] 0 1
r 6.872558872 _1_ RTR  --- 48 cbr 512 [0 0 0 0] ------- [1:0 2:0 32 0] [46] 0 1
SFs 6.872558872 _1_ 48 [1 -> 2] 1(0) to 2 
s 6.872558872 _1_ RTR  --- 48 cbr 532 [0 0 0 0] ------- [1:0 2:0 32 2] [46] 0 1
r 6.878475170 _2_ RTR  --- 48 cbr 532 [13a 2 1 800] ------- [1:0 2:0 32 2] [46] 1 1
r 6.878475170 _2_ AGT  --- 48 cbr 512 [13a 2 1 800] ------- [1:0 2:0 32 2] [46] 1 1
s 6.948697350 _1_ AGT  --- 49 cbr 512 [0 0 0 0] ------- [1:0 2:0 32 0] [47] 0 1
r 6.948697350 _1_ RTR  --- 49 cbr 512 [0 0 0 0] ------- [1:0 2:0 32 0] [47] 0 1
SFs 6.948697350 _1_ 49 [1 -> 2] 1(0) to 2 
s 6.948697350 _1_ RTR  --- 49 cbr 532 [0 0 0 0] ------- [1:0 2:0 32 2] [47] 0 1
r 6.954253652 _2_ RTR  --- 49 cbr 532 [13a 2 1 800] ------- [1:0 2:0 32 2] [47] 1 1
r 6.954253652 _2_ AGT  --- 49 cbr 512 [13a 2 1 800] ------- [1:0 2:0 32 2] [47] 1 1
s 7.086572498 _1_ AGT  --- 50 cbr 512 [0 0 0 0] ------- [1:0 2:0 32 0] [48] 0 1
r 7.086572498 _1_ RTR  --- 50 cbr 512 [0 0 0 0] ------- [1:0 2:0 32 0] [48] 0 1
SFs 7.086572498 _1_ 50 [1 -> 2] 1(0) to 2 
s 7.086572498 _1_ RTR  --- 50 cbr 532 [0 0 0 0] ------- [1:0 2:0 32 2] [48] 0 1
r 7.092208807 _2_ RTR  --- 50 cbr 532 [13a 2 1 800] ------- [1:0 2:0 32 2] [48] 1 1
r 7.092208807 _2_ AGT  --- 50 cbr 512 [13a 2 1 800] ------- [1:0 2:0 32 2] [48] 1 1
s 7.183668399 _1_ AGT  --- 51 cbr 512 [0 0 0 0] ------- [1:0 2:0 32 0] [49] 0 1
r 7.183668399 _1_ RTR  --- 51 cbr 512 [0 0 0 0] ------- [1:0 2:0 32 0] [49] 0 1
SFs 7.183668399 _1_ 51 [1 -> 2] 1(0) to 2 
s 7.183668399 _1_ RTR  --- 51 cbr 532 [0 0 0 0] ------- [1:0 2:0 32 2] [49] 0 1
r 7.189184713 _2_ RTR  --- 51 cbr 532 [13a 2 1 800] ------- [1:0 2:0 32 2] [49] 1 1
r 7.189184713 _2_ AGT  --- 51 cbr 512 [13a 2 1 800] ------- [1:0 2:0 32 2] [49] 1 1
s 7.303212344 _1_ AGT  --- 52 cbr 512 [0 0 0 0] ------- [1:0 2:0 32 0] [50] 0 1
r 7.303212344 _1_ RTR  --- 52 cbr 512 [0 0 0 0] ------- [1:0 2:0 32 0] [50] 0 1
SFs 7.303212344 _1_ 52 [1 -> 2] 1(0) to 2 
s 7.303212344 _1_ RTR  --- 52 cbr 532 [0 0 0 0] ------- [1:0 2:0 32 2] [50] 0 1
r 7.309268666 _2_ RTR  --- 52 cbr 532 [13a 2 1 800] ------- [1:0 2:0 32 2] [50] 1 1
r 7.309268666 _2_ AGT  --- 52 cbr 512 [13a 2 1 800] ------- [1:0 2:0 32 2] [50] 1 1
s 7.433121761 _1_ AGT  --- 53 cbr 512 [0 0 0 0] ------- [1:0 2:0 32 0] [51] 0 1
r 7.433121761 _1_ RTR  --- 53 cbr 512 [0 0 0 0] ------- [1:0 2:0 32 0] [51] 0 1
SFs 7.433121761 _1_ 53 [1 -> 2] 1(0) to 2 
s 7.433121761 _1_ RTR  --- 53 cbr 532 [0 0 0 0] ------- [1:0 2:0 32 2] [51] 0 1
r 7.439138091 _2_ RTR  --- 53 cbr 532 [13a 2 1 800] ------- [1:0 2:0 32 2] [51] 1 1
r 7.439138091 _2_ AGT  --- 53 cbr 512 [13a 2 1 800] ------- [1:0 2:0 32 2] [51] 1 1
s 7.511591029 _1_ AGT  --- 54 cbr 512 [0 0 0 0] ------- [1:0 2:0 32 0] [52] 0 1
r 7.511591029 _1_ RTR  --- 54 cbr 512 [0 0 0 0] ------- [1:0 2:0 32 0] [52] 0 1
SFs 7.511591029 _1_ 54 [1 -> 2] 1(0) to 2 
s 7.511591029 _1_ RTR  --- 54 cbr 532 [0 0 0 0] ------- [1:0 2:0 32 2] [52] 0 1
r 7.517147363 _2_ RTR  --- 54 cbr 532 [13a 2 1 800] ------- [1:0 2:0 32 2] [52] 1 1
r 7.517147363 _2_ AGT  --- 54 cbr 512 [13a 2 1 800] ------- [1:0 2:0 32 2] [52] 1 1
s 7.636294438 _1_ AGT  --- 55 cbr 512 [0 0 0 0] ------- [1:0 2:0 32 0] [53] 0 1
r 7.636294438 _1_ RTR  --- 55 cbr 512 [0 0 0 0] ------- [1:0 2:0 32 0] [53] 0 1
SFs 7.636294438 _1_ 55 [1 -> 2] 1(0) to 2 
s 7.636294438 _1_ RTR  --- 55 cbr 532 [0 0 0 0] ------- [1:0 2:0 32 2] [53] 0 1
r 7.642230782 _2_ RTR  --- 55 cbr 532 [13a 2 1 800] ------- [1:0 2:0 32 2] [53] 1 1
r 7.642230782 _2_ AGT  --- 55 cbr 512 [13a 2 1 800] ------- [1:0 2:0 32 2] [53] 1 1
s 7.781739949 _1_ AGT  --- 56 cbr 512 [0 0 0 0] ------- [1:0 2:0 32 0] [54] 0 1
r 7.781739949 _1_ RTR  --- 56 cbr 512 [0 0 0 0] ------- [1:0 2:0 32 0] [54] 0 1
SFs 7.781739949 _1_ 56 [1 -> 2] 1(0) to 2 
s 7.781739949 _1_ RTR  --- 56 cbr 532 [0 0 0 0] ------- [1:0 2:0 32 2] [54] 0 1
r 7.787476303 _2_ RTR  --- 56 cbr 532 [13a 2 1 800] ------- [1:0 2:0 32 2] [54] 1 1
r 7.787476303 _2_ AGT  --- 56 cbr 512 [13a 2 1 800] ------- [1:0 2:0 32 2] [54] 1 1
s 7.863341575 _1_ AGT  --- 57 cbr 512 [0 0 0 0] ------- [1:0 2:0 32 0] [55] 0 1
r 7.863341575 _1_ RTR  --- 57 cbr 512 [0 0 0 0] ------- [1:0 2:0 32 0] [55] 0 1
SFESTs 7.863341575 _1_ 57 [1 -> 2] 1(1) to 2 [1 |2 ]
s 7.863341575 _1_ RTR  --- 57 cbr 548 [0 0 0 0] ------- [1:0 2:0 32 2] [55] 0 1
r 7.869465935 _2_ RTR  --- 57 cbr 548 [13a 2 1 800] ------- [1:0 2:0 32 2] [55] 1 1
r 7.869465935 _2_ AGT  --- 57 cbr 512 [13a 2 1 800] ------- [1:0 2:0 32 2] [55] 1 1
s 7.982598189 _1_ AGT  --- 58 cbr 512 [0 0 0 0] ------- [1:0 2:0 32 0] [56] 0 1
r 7.982598189 _1_ RTR  --- 58 cbr 512 [0 0 0 0] ------- [1:0 2:0 32 0] [56] 0 1
SFs 7.982598189 _1_ 58 [1 -> 2] 1(0) to 2 
s 7.982598189 _1_ RTR  --- 58 cbr 532 [0 0 0 0] ------- [1:0 2:0 32 2] [56] 0 1
r 7.988214557 _2_ RTR  --- 58 cbr 532 [13a 2 1 800] ------- [1:0 2:0 32 2] [56] 1 1
r 7.988214557 _2_ AGT  --- 58 cbr 512 [13a 2 1 800] ------- [1:0 2:0 32 2] [56] 1 1
s 8.117409907 _1_ AGT  --- 59 cbr 512 [0 0 0 0] ------- [1:0 2:0 32 0] [57] 0 1
r 8.117409907 _1_ RTR  --- 59 cbr 512 [0 0 0 0] ------- [1:0 2:0 32 0] [57] 0 1
SFs 8.117409907 _1_ 59 [1 -> 2] 1(0) to 2 
s 8.117409907 _1_ RTR  --- 59 cbr 532 [0 0 0 0] ------- [1:0 2:0 32 2] [57] 0 1
r 8.123146285 _2_ RTR  --- 59 cbr 532 [13a 2 1 800] ------- [1:0 2:0 32 2] [57] 1 1
r 8.123146285 _2_ AGT  --- 59 cbr 512 [13a 2 1 800] ------- [1:0 2:0 32 2] [57] 1 1
s 8.187223405 _1_ AGT  --- 60 cbr 512 [0 0 0 0] ------- [1:0 2:0 32 0] [58] 0 1
r 8.187223405 _1_ RTR  --- 60 cbr 512 [0 0 0 0] ------- [1:0 2:0 32 0] [58] 0 1
SFs 8.187223405 _1_ 60 [1 -> 2] 1(0) to 2 
s 8.187223405 _1_ RTR  --- 60 cbr 532 [0 0 0 0] ------- [1:0 2:0 32 2] [58] 0 1
r 8.193059790 _2_ RTR  --- 60 cbr 532 [13a 2 1 800] ------- [1:0 2:0 32 2] [58] 1 1
r 8.193059790 _2_ AGT  --- 60 cbr 512 [13a 2 1 800] ------- [1:0 2:0 32 2] [58] 1 1
s 8.276119740 _1_ AGT  --- 61 cbr 512 [0 0 0 0] ------- [1:0 2:0 32 0] [59] 0 1
r 8.276119740 _1_ RTR  --- 61 cbr 512 [0 0 0 0] ------- [1:0 2:0 32 0] [59] 0 1
SFs 8.276119740 _1_ 61 [1 -> 2] 1(0) to 2 
s 8.276119740 _1_ RTR  --- 61 cbr 532 [0 0 0 0] ------- [1:0 2:0 32 2] [59] 0 1
r 8.282116131 _2_ RTR  --- 61 cbr 532 [13a 2 1 800] ------- [1:0 2:0 32 2] [59] 1 1
r 8.282116131 _2_ AGT  --- 61 cbr 512 [13a 2 1 800] ------- [1:0 2:0 32 2] [59] 1 1